#     Step Nr.          Time[fs]        Kin.[a.u.]          Temp[K]            Pot.[a.u.]        Cons Qty[a.u.]        UsedTime[s]
      3010         3010.000000         0.083460847       297.794570089      -129.730241147      -129.707055741         0.234908476
      3020         3020.000000         0.087828486       313.378635355      -129.735443024      -129.707563483         0.234352909
      3030         3030.000000         0.071589340       255.436143301      -129.720556449      -129.708526125         0.220983565
      3040         3040.000000         0.086701635       309.357947286      -129.734846494      -129.707521432         0.235427483
      3050         3050.000000         0.088648193       316.303411722      -129.736731214      -129.707277348         0.236063009
      3060         3060.000000         0.084259344       300.643667359      -129.733165827      -129.707830904         0.220977195
      3070         3070.000000         0.083750769       298.829033255      -129.732856049      -129.707802114         0.235380479
      3080         3080.000000         0.093977548       335.318950816      -129.742945637      -129.707442202         0.234603270
      3090         3090.000000         0.081361235       290.302999701      -129.729770381      -129.706447675         0.239779050
      3100         3100.000000         0.092319916       329.404393948      -129.737776637      -129.703028796         0.237099084
      3110         3110.000000         0.078332592       279.496571302      -129.724420157      -129.703079833         0.236560682
      3120         3120.000000         0.081518977       290.865833940      -129.727960820      -129.702843614         0.234878674
      3130         3130.000000         0.098187771       350.341344156      -129.745531010      -129.703025348         0.234952940
      3140         3140.000000         0.089929571       320.875463736      -129.739094890      -129.703834134         0.243045721
      3150         3150.000000         0.081637036       291.287075060      -129.731285183      -129.703028615         0.234808739
      3160         3160.000000         0.093338899       333.040204267      -129.744432386      -129.703072291         0.219980244
      3170         3170.000000         0.086977870       310.343573400      -129.739880688      -129.703081370         0.241644855
      3180         3180.000000         0.079287572       282.904014223      -129.733948552      -129.702951854         0.232354340
      3190         3190.000000         0.087608021       312.592000531      -129.744253463      -129.702904416         0.118783220
      3200         3200.000000         0.083695833       298.633019321      -129.739321828      -129.699895201         0.243553954
      3210         3210.000000         0.073576561       262.526697292      -129.731376323      -129.699817412         0.221906028
      3220         3220.000000         0.083217889       296.927680616      -129.743452374      -129.700388657         0.235115012
      3230         3230.000000         0.069763905       248.922853160      -129.730857932      -129.699452806         0.234593839
      3240         3240.000000         0.068006454       242.652135220      -129.730352989      -129.699172100         0.237292696
      3250         3250.000000         0.068883392       245.781116250      -129.732595219      -129.699351300         0.234588117
      3260         3260.000000         0.074438187       265.601042340      -129.739285428      -129.699613879         0.222521497
      3270         3270.000000         0.062716116       223.775813715      -129.727902447      -129.699268417         0.235044209
      3280         3280.000000         0.072241724       257.763897731      -129.738047251      -129.699510114         0.244370489
      3290         3290.000000         0.074094282       264.373963740      -129.740301053      -129.699754069         0.235527762
      3300         3300.000000         0.062984558       224.733634634      -129.726471986      -129.697078056         0.235650721
      3310         3310.000000         0.059269155       211.476797746      -129.722507028      -129.697149961         0.278765483
      3320         3320.000000         0.072254195       257.808394011      -129.734100638      -129.696487144         0.237528191
      3330         3330.000000         0.062459416       222.859889404      -129.723059376      -129.696273965         0.224657822
      3340         3340.000000         0.078585186       280.397848030      -129.738118789      -129.696482511         0.234488252
      3350         3350.000000         0.073101444       260.831444630      -129.730659211      -129.696090425         0.234524475
      3360         3360.000000         0.056530201       201.704002039      -129.712009641      -129.695719810         0.234665520
      3370         3370.000000         0.087105009       310.797215116      -129.741455600      -129.696784463         0.209205691
      3380         3380.000000         0.076362115       272.465761834      -129.728189407      -129.696633538         0.234182714
      3390         3390.000000         0.066915985       238.761259986      -129.717399796      -129.697510061         0.236891072
      3400         3400.000000         0.075774415       270.368803063      -129.720844053      -129.694353446         0.222253537
      3410         3410.000000         0.070211622       250.520341879      -129.713183521      -129.694165910         0.235368378
      3420         3420.000000         0.071678310       255.753594483      -129.713245694      -129.694511163         0.234369993
      3430         3430.000000         0.088703387       316.500348218      -129.728015399      -129.693900512         0.206886858
      3440         3440.000000         0.082150473       293.119059442      -129.720948049      -129.694699535         0.234072066
      3450         3450.000000         0.069107185       246.579626602      -129.708566288      -129.696392190         0.233655844
      3460         3460.000000         0.076851529       274.212028671      -129.714796284      -129.695736462         0.234482317
      3470         3470.000000         0.073637414       262.743826068      -129.710365019      -129.695336151         0.436363777
      3480         3480.000000         0.067020483       239.134119262      -129.701875753      -129.694307403         0.234540429
      3490         3490.000000         0.083453369       297.767889915      -129.717547478      -129.694439717         0.118025253
      3500         3500.000000         0.091591295       326.804622379      -129.723098083      -129.692686379         0.236406737
      3510         3510.000000         0.072700951       259.402452630      -129.701355294      -129.690707854         0.233593831
      3520         3520.000000         0.087392003       311.821229988      -129.715513377      -129.690974339         0.234248328
      3530         3530.000000         0.089009710       317.593329992      -129.716740533      -129.691454355         0.251103728
      3540         3540.000000         0.072600105       259.042627852      -129.698341811      -129.690294718         0.224772821
      3550         3550.000000         0.085943137       306.651567801      -129.711896468      -129.691408302         0.234490543
      3560         3560.000000         0.094585283       337.487395682      -129.719995940      -129.691840776         0.221398078
      3570         3570.000000         0.074457194       265.668860643      -129.698054206      -129.690857421         0.220117334
      3580         3580.000000         0.107715898       384.338414442      -129.731759879      -129.692296822         0.235454521
      3590         3590.000000         0.090985770       324.644061443      -129.713567794      -129.691543247         0.234199840
      3600         3600.000000         0.076327241       272.341328503      -129.694398591      -129.687626853         0.239069778
      3610         3610.000000         0.100616166       359.006037801      -129.718664484      -129.688171458         0.234801738
      3620         3620.000000         0.098564466       351.685419195      -129.715430691      -129.687383678         0.234820884
      3630         3630.000000         0.080563549       287.456796013      -129.697749579      -129.687891318         0.234525284
      3640         3640.000000         0.103534055       369.417286343      -129.720970280      -129.688193334         0.236230298
      3650         3650.000000         0.102004212       363.958691593      -129.719537819      -129.688049503         0.239054187
      3660         3660.000000         0.082415858       294.065971654      -129.701980115      -129.689547277         0.233983168
      3670         3670.000000         0.100127978       357.264146732      -129.719869501      -129.689096822         0.234002792
      3680         3680.000000         0.089728845       320.159258728      -129.709329479      -129.688143273         0.241599914
      3690         3690.000000         0.082890473       295.759433363      -129.703214983      -129.687811795         0.233412245
      3700         3700.000000         0.095834430       341.944443842      -129.713188244      -129.683540351         0.244101090
      3710         3710.000000         0.101609334       362.549737702      -129.720226928      -129.683329154         0.235503211
      3720         3720.000000         0.078108440       278.696782634      -129.697301303      -129.681974138         0.242457350
      3730         3730.000000         0.100899691       360.017676500      -129.722236416      -129.682152174         0.237778149
      3740         3740.000000         0.103941233       370.870127312      -129.729229641      -129.683738811         0.219518670
      3750         3750.000000         0.080940354       288.801261789      -129.707954552      -129.682952194         0.237622342
      3760         3760.000000         0.100043442       356.962515620      -129.730473457      -129.683754564         0.217180431
      3770         3770.000000         0.078514385       280.145225157      -129.711755652      -129.684199536         0.219705556
      3780         3780.000000         0.073623486       262.694127359      -129.708912022      -129.684250612         0.220287263
      3790         3790.000000         0.085473419       304.975580442      -129.721575311      -129.683438739         0.237099495
      3800         3800.000000         0.094082337       335.692846195      -129.727504134      -129.679166786         0.235277177
      3810         3810.000000         0.079666816       284.257183837      -129.714176207      -129.678681467         0.222723961
      3820         3820.000000         0.086769709       309.600839814      -129.723617970      -129.679751254         0.234074803
      3830         3830.000000         0.080810476       288.337850125      -129.717992247      -129.679024652         0.236698516
      3840         3840.000000         0.075954004       271.009592215      -129.713061287      -129.678068737         0.234498675
      3850         3850.000000         0.093412797       333.303876815      -129.731300692      -129.678061776         0.246328951
      3860         3860.000000         0.093588052       333.929199507      -129.733193895      -129.678966474         0.234024307
      3870         3870.000000         0.074228050       264.851258826      -129.715082540      -129.679456716         0.220807954
      3880         3880.000000         0.086344860       308.084946994      -129.727661999      -129.679280440         0.234341282
      3890         3890.000000         0.090952256       324.524481427      -129.733133596      -129.679557431         0.217441827
      3900         3900.000000         0.077982157       278.246195005      -129.717498920      -129.676315551         0.235697007
      3910         3910.000000         0.083816756       299.064481680      -129.722096419      -129.674607373         0.235762860
      3920         3920.000000         0.084667208       302.098959561      -129.723455507      -129.674646355         0.233550300
      3930         3930.000000         0.074752308       266.721850435      -129.714861120      -129.675516434         0.203622650
      3940         3940.000000         0.087265537       311.369990465      -129.727014089      -129.674730443         0.220798858
      3950         3950.000000         0.092516065       330.104269272      -129.732663193      -129.674668814         0.231647081
      3960         3960.000000         0.086369392       308.172477565      -129.727442203      -129.674975299         0.234765325
      3970         3970.000000         0.079168518       282.479220198      -129.721352912      -129.675471695         0.236804497
      3980         3980.000000         0.073207711       261.210612084      -129.716390987      -129.676084308         0.234585709
      3990         3990.000000         0.069800882       249.054788935      -129.711845588      -129.674786990         0.235039015
      4000         4000.000000         0.092017691       328.326031955      -129.731712412      -129.672469349         0.239824985
      4010         4010.000000         0.088880965       317.133959356      -129.728605747      -129.672416002         0.235052884
      4020         4020.000000         0.077689959       277.203609455      -129.716491584      -129.671316622         0.234848100
      4030         4030.000000         0.073145291       260.987892254      -129.712563238      -129.671882531         0.233687480
      4040         4040.000000         0.078505396       280.113148354      -129.717619603      -129.671721881         0.236511194
      4050         4050.000000         0.079431384       283.417145106      -129.717893538      -129.671369004         0.233847913
      4060         4060.000000         0.095991498       342.504876674      -129.735442167      -129.672821695         0.205384436
      4070         4070.000000         0.087986886       313.943819941      -129.727589492      -129.673376941         0.233587540
      4080         4080.000000         0.073317943       261.603927289      -129.712722646      -129.673614998         0.234166704
      4090         4090.000000         0.076166229       271.766827902      -129.713997676      -129.672657858         0.293884002
      4100         4100.000000         0.079824488       284.819769151      -129.712177915      -129.667994714         0.206427364
      4110         4110.000000         0.077508929       276.557679938      -129.709559174      -129.668826644         0.219683217
      4120         4120.000000         0.087830165       313.384624548      -129.717995936      -129.668424972         0.238446654
      4130         4130.000000         0.090468453       322.798234390      -129.718123380      -129.667764771         0.234073065
      4140         4140.000000         0.085962002       306.718881740      -129.712849390      -129.669009096         0.233417116
      4150         4150.000000         0.079877928       285.010445862      -129.705338624      -129.669697536         0.236060573
      4160         4160.000000         0.098722277       352.248499890      -129.721661216      -129.669855715         0.234466964
      4170         4170.000000         0.091893941       327.884483287      -129.711407582      -129.669696603         0.235398463
      4180         4180.000000         0.104072070       371.336963317      -129.718040140      -129.667518347         0.220390598
      4190         4190.000000         0.108354450       386.616818643      -129.720481493      -129.669255842         0.237300100
      4200         4200.000000         0.081894196       292.204642043      -129.689215903      -129.667295956         0.238392101
      4210         4210.000000         0.108434061       386.900875080      -129.710139982      -129.664579121         0.237028705
      4220         4220.000000         0.100657897       359.154938660      -129.700124300      -129.664750462         0.253795808
      4230         4230.000000         0.110286510       393.510551738      -129.708024201      -129.664944332         0.234285672
      4240         4240.000000         0.105329823       375.824722186      -129.729754091      -129.692883890         0.235750202
      4250         4250.000000         0.088808294       316.874665402      -129.713498720      -129.693916098         0.219719049
      4260         4260.000000         0.086774512       309.617978138      -129.711928275      -129.694880242         0.240957103
      4270         4270.000000         0.088313471       315.109099407      -129.715623287      -129.697425187         0.220502798
      4280         4280.000000         0.084789858       302.536583960      -129.712988205      -129.698649185         0.236530384
      4290         4290.000000         0.094761406       338.115816007      -129.719709955      -129.695703761         0.234306799
      4300         4300.000000         0.092324585       329.421055110      -129.714571368      -129.693082871         0.234705084
      4310         4310.000000         0.087606198       312.585496139      -129.709829455      -129.692943075         0.234284445
      4320         4320.000000         0.072513010       258.731867544      -129.692915489      -129.690985507         0.234259076
      4330         4330.000000         0.085692364       305.756791083      -129.706097941      -129.690972092         0.233835094
      4340         4340.000000         0.091614600       326.887775607      -129.712561053      -129.691508267         0.251351711
      4350         4350.000000         0.079339514       283.089346741      -129.700111712      -129.691293958         0.219938038
      4360         4360.000000         0.084346804       300.955733064      -129.705128076      -129.691345985         0.222840785
      4370         4370.000000         0.092881222       331.407176938      -129.713565543      -129.691329660         0.219887252
      4380         4380.000000         0.074941996       267.398670346      -129.698861219      -129.694584610         0.235028122
      4390         4390.000000         0.086525759       308.730407029      -129.710058705      -129.694365895         0.220617155
      4400         4400.000000         0.081296330       290.071413227      -129.698144267      -129.687969451         0.247571916
      4410         4410.000000         0.100697346       359.295695825      -129.716323644      -129.687164202         0.242041782
      4420         4420.000000         0.095615656       341.163843504      -129.710786172      -129.687003775         0.242969115
      4430         4430.000000         0.093585583       333.920390068      -129.708531151      -129.686891007         0.220103612
      4440         4440.000000         0.085208630       304.030790737      -129.700317664      -129.687100122         0.234262575
      4450         4450.000000         0.093111106       332.227420984      -129.708230405      -129.687108992         0.240398324
      4460         4460.000000         0.106181122       378.862218750      -129.722198252      -129.687783520         0.207834508
      4470         4470.000000         0.077775270       277.508006853      -129.695394700      -129.688837390         0.234284921
      4480         4480.000000         0.081170407       289.622107867      -129.699968149      -129.689425995         0.234201226
      4490         4490.000000         0.084272050       300.689005265      -129.703354701      -129.688976942         0.236969506
      4500         4500.000000         0.068946748       246.007175197      -129.686217985      -129.686423883         0.250301426
      4510         4510.000000         0.089099093       317.912255623      -129.707576562      -129.686923148         0.255997682
      4520         4520.000000         0.079510493       283.699413359      -129.697130939      -129.685264212         0.221218064
      4530         4530.000000         0.086925461       310.156573153      -129.705592974      -129.685345415         0.235673977
      4540         4540.000000         0.082827232       295.533786774      -129.700712473      -129.683497351         0.118010679
      4550         4550.000000         0.076771618       273.926900490      -129.694696379      -129.682537275         0.235252154
      4560         4560.000000         0.079160590       282.450933240      -129.698604673      -129.683077915         0.238925625
      4570         4570.000000         0.086840441       309.853215556      -129.707938389      -129.683616425         0.220852261
      4580         4580.000000         0.084407488       301.172256344      -129.707126212      -129.683963993         0.208268845
      4590         4590.000000         0.073544581       262.412590130      -129.698160686      -129.684633319         0.229573286
      4600         4600.000000         0.065473631       233.614833458      -129.685536548      -129.678941593         0.221046457
      4610         4610.000000         0.077543188       276.679918739      -129.698296586      -129.678671728         0.234075806
      4620         4620.000000         0.079095221       282.217691721      -129.701280836      -129.679105312         0.234323853
      4630         4630.000000         0.083120382       296.579765283      -129.705727391      -129.678542466         0.219936118
      4640         4640.000000         0.085794872       306.122548530      -129.709487662      -129.678651454         0.206721977
      4650         4650.000000         0.060946344       217.461135067      -129.685354517      -129.678513348         0.208356713
      4660         4660.000000         0.085194791       303.981414306      -129.711246452      -129.679617119         0.115068639
      4670         4670.000000         0.078894654       281.502050715      -129.706717115      -129.680907492         0.220138417
      4680         4680.000000         0.076978010       274.663322220      -129.704603993      -129.680391932         0.115744455
      4690         4690.000000         0.084794376       302.552702915      -129.712997604      -129.680778247         0.219616262
      4700         4700.000000         0.082273161       293.556816882      -129.707557652      -129.677697737         0.221604153
      4710         4710.000000         0.081317297       290.146224438      -129.706052525      -129.677063136         0.234414808
      4720         4720.000000         0.071268350       254.290826618      -129.695487099      -129.676571577         0.236061030
      4730         4730.000000         0.088132374       314.462931575      -129.712741728      -129.677187249         0.234242540
      4740         4740.000000         0.086041991       307.004286852      -129.709949444      -129.676739625         0.236014642
      4750         4750.000000         0.080233531       286.279265340      -129.703537437      -129.676322162         0.259919584
      4760         4760.000000         0.086700283       309.353123724      -129.710268923      -129.676807492         0.219339133
      4770         4770.000000         0.064713644       230.903143140      -129.689767901      -129.678509596         0.220431856
      4780         4780.000000         0.077421211       276.244698264      -129.704147340      -129.680603375         0.219727219
      4790         4790.000000         0.074022165       264.116646702      -129.698447629      -129.678907944         0.222418023
      4800         4800.000000         0.075923256       270.899880295      -129.695116204      -129.674531388         0.236605739
      4810         4810.000000         0.089393264       318.961880350      -129.706600350      -129.673762557         0.236280884
      4820         4820.000000         0.081511546       290.839319928      -129.696738662      -129.673063767         0.234959745
      4830         4830.000000         0.073422457       261.976840189      -129.686850513      -129.672713892         0.236526814
      4840         4840.000000         0.086747412       309.521283578      -129.698795231      -129.673115531         0.234021253
      4850         4850.000000         0.084093401       300.051570817      -129.694684809      -129.673662674         0.243318268
      4860         4860.000000         0.096038519       342.672650425      -129.706276257      -129.675594753         0.117736208
      4870         4870.000000         0.086397344       308.272213852      -129.696008339      -129.677254651         0.219995723
      4880         4880.000000         0.093336458       333.031494669      -129.700122165      -129.676587678         0.235993564
      4890         4890.000000         0.081085596       289.319496582      -129.685065868      -129.675795714         0.234664231
      4900         4900.000000         0.092655167       330.600596741      -129.690603542      -129.671692189         0.234729234
      4910         4910.000000         0.103545442       369.457914052      -129.697730447      -129.669790958         0.234063059
      4920         4920.000000         0.093262477       332.767525367      -129.686095770      -129.670022022         0.234028595
      4930         4930.000000         0.095765140       341.697214594      -129.687515054      -129.669976247         0.233391721
      4940         4940.000000         0.110683757       394.927958387      -129.701080998      -129.669408919         0.234179486
      4950         4950.000000         0.080677114       287.862004167      -129.671098841      -129.669781532         0.206168647
      4960         4960.000000         0.095469238       340.641413985      -129.687459428      -129.671616523         0.234586320
      4970         4970.000000         0.098395663       351.083117155      -129.692464262      -129.673847353         0.235067623
      4980         4980.000000         0.100918081       360.083295410      -129.696877471      -129.675710567         0.233899606
      4990         4990.000000         0.098528097       351.555650690      -129.691847579      -129.672738657         0.206404906
      5000         5000.000000         0.091000251       324.695730585      -129.678960825      -129.666835927         0.235238549
      5010         5010.000000         0.095223542       339.764752361      -129.681896432      -129.664753082         0.239229535
      5020         5020.000000         0.096104284       342.907302944      -129.683649322      -129.664603123         0.220228116
      5030         5030.000000         0.106955688       381.625929145      -129.697051717      -129.665731771         0.234270693
      5040         5040.000000         0.087288691       311.452605188      -129.678726467      -129.665206644         0.220478653
      5050         5050.000000         0.095796764       341.810050576      -129.689641005      -129.665477461         0.239531874
      5060         5060.000000         0.094259812       336.326090114      -129.691833367      -129.666857402         0.236579822
      5070         5070.000000         0.077119596       275.168512158      -129.678470785      -129.668388438         0.235148943
      5080         5080.000000         0.085691452       305.753538206      -129.691416004      -129.670705632         0.234385625
      5090         5090.000000         0.084907518       302.956401829      -129.689051927      -129.667034161         0.237089324
      5100         5100.000000         0.086619171       309.063710086      -129.686696014      -129.661132748         0.220955386
      5110         5110.000000         0.080517206       287.291440077      -129.682652476      -129.661529215         0.234972242
      5120         5120.000000         0.078993234       281.853793559      -129.681311276      -129.660462899         0.234125842
      5130         5130.000000         0.084100443       300.076696675      -129.687449258      -129.660410731         0.243768828
      5140         5140.000000         0.080997464       289.005035499      -129.685886903      -129.661032586         0.234800895
      5150         5150.000000         0.089595104       319.682061075      -129.696772172      -129.662639981         0.234140669
      5160         5160.000000         0.083361486       297.440044196      -129.692723694      -129.664272468         0.234278523
      5170         5170.000000         0.081329957       290.191396951      -129.689703153      -129.662879832         0.238125117
      5180         5180.000000         0.089772750       320.315916763      -129.698974125      -129.663412743         0.234733804
      5190         5190.000000         0.090214719       321.892895379      -129.699288284      -129.662982548         0.245799037
      5200         5200.000000         0.086364369       308.154556688      -129.689943058      -129.657182576         0.223337404
      5210         5210.000000         0.090808205       324.010495115      -129.694381423      -129.656785602         0.234015294
      5220         5220.000000         0.081535342       290.924224809      -129.686435879      -129.657645554         0.234806023
      5230         5230.000000         0.088189944       314.668343381      -129.693991375      -129.658081440         0.234579791
      5240         5240.000000         0.085347205       304.525239366      -129.692114537      -129.658585072         0.222664425
      5250         5250.000000         0.080931019       288.767955374      -129.687802621      -129.658267929         0.234108198
      5260         5260.000000         0.081191891       289.698766309      -129.690071678      -129.659917269         0.235077657
      5270         5270.000000         0.078076472       278.582715902      -129.687792728      -129.660470776         0.233747544
      5280         5280.000000         0.069897587       249.399842459      -129.677380175      -129.658096705         0.235128812