      70
 i =     3100, time =     3100.000, E =      -129.7377766374
  C        -5.6813061349       -6.3189789544       -0.1077977830
  C        -5.6507233506       -2.0261728591        0.0112039614
  C        -5.6620306940        2.2224850869       -0.0163540420
  C        -3.2036065151       -6.3069139810       -0.0085724694
  C        -3.2211782402       -2.0247991487        0.1492984680
  C        -3.2016179808        2.1913281719       -0.0481553620
  C        -0.7656405877       -6.3577131704       -0.0364815916
  C        -0.7300153462       -2.0839981067        0.0843495377
  C        -0.7199039525        2.2051227697       -0.2008613318
  C         1.7423856877       -6.3034800684       -0.0113854486
  C         1.7408001108       -2.0766964833       -0.1079611662
  C         1.7367281440        2.1835718181       -0.1210065572
  C         4.1724289937       -6.3245768587       -0.0295054778
  C         4.1798831614       -2.0493007130       -0.0688027511
  C         4.1733053711        2.1624663471       -0.0455775162
  C        -5.6982385934       -4.9292473800       -0.1244645850
  C        -5.6332337105       -0.6180116557       -0.0165535182
  C        -5.6353658758        3.6467764571       -0.0173585383
  C        -3.2323899631       -4.8944734325       -0.0465474109
  C        -3.1747511012       -0.5938656030        0.0700828058
  C        -3.1844207700        3.6157191261       -0.0060911263
  C        -0.7687665104       -4.9183680716       -0.0165999185
  C        -0.7535437441       -0.6415493970        0.0608250313
  C        -0.7368269312        3.6161293462       -0.1473859911
  C         1.7115390907       -4.9072171962       -0.0650987668
  C         1.7133280488       -0.6706595744        0.0029719190
  C         1.7370236674        3.5955042508       -0.1545713670
  C         4.1850066529       -4.9095286778       -0.0950707636
  C         4.1686546689       -0.6234750296       -0.0303132225
  C         4.1915436561        3.6125574575       -0.0855141802
  C        -4.4660423479       -4.1810365145       -0.0777889268
  C        -4.4262061867        0.0964766899        0.0023406198
  C        -4.4091253303        4.3218800649       -0.0091007551
  C        -2.0026550454       -4.1854701745       -0.0174964052
  C        -1.9637033300        0.0856099235       -0.0458153780
  C        -1.9492218657        4.3254485218       -0.0696993471
  C         0.4621452892       -4.2251058088       -0.0330783519
  C         0.4844378679        0.0575606693        0.0781319275
  C         0.4983146996        4.3410402494       -0.0938486133
  C         2.9363608531       -4.2060536185       -0.0777902486
  C         2.9096475765        0.0359265435       -0.0169272997
  C         2.9581167270        4.3249225675       -0.0959422824
  C         5.4119991709       -4.1921517504       -0.0172074683
  C         5.4119991709        0.0678482496       -0.0172074683
  C         5.4119991709        4.3278482496       -0.0172074683
  C        -4.4212324248       -2.7626989680        0.0245076717
  C        -4.4481367687        1.5012415871        0.0168134764
  C        -4.4280008291        5.7478482496       -0.0172074683
  C        -1.9742387559       -2.7930914835        0.0599540687
  C        -1.9625360030        1.5021879306       -0.1692070204
  C        -1.9680008291        5.7478482496       -0.0172074683
  C         0.4952162296       -2.7820131687        0.0023065663
  C         0.5186723037        1.4957454497       -0.0871575632
  C         0.4919991709        5.7478482496       -0.0172074683
  C         2.9686906034       -2.7764202442       -0.0968755584
  C         2.9405281413        1.4597625851       -0.0501256161
  C         2.9519991709        5.7478482496       -0.0172074683
  C         5.4119991709       -2.7721517504       -0.0172074683
  C         5.4119991709        1.4878482496       -0.0172074683
  C         5.4119991709        5.7478482496       -0.0172074683
  H         1.8047625823        0.4940032144        2.1475516596
  H         1.2696009217        2.0669128631        4.1079310877
  O         2.0593640965        1.3036415518        2.6224551107
  O         3.4010464642       -0.4212667360        2.8715934351
  O         3.8878584105        1.5360836304        3.9034959229
  O         0.3943701138        2.4586569144        4.3458387534
  O         0.8177732056        3.4959504393        2.5023190778
  O        -0.6904144850        4.3138947850        3.8279810566
  N         3.0840200228        0.8596529681        3.1566302724
  N         0.1387514920        3.4486409433        3.5790230898
      70
 i =     3200, time =     3200.000, E =      -129.7393218281
  C        -5.6680099713       -6.3254674341       -0.0133729671
  C        -5.6846477615       -2.0889301387        0.0490734038
  C        -5.6897299204        2.1576677590        0.0265350602
  C        -3.2206193970       -6.3330548998       -0.0313737630
  C        -3.2399668282       -2.0882259268        0.0534852113
  C        -3.2016945536        2.2108529123       -0.0292005847
  C        -0.7765984174       -6.3224777523       -0.0217837718
  C        -0.7494354977       -2.0788293426        0.0040306226
  C        -0.7422774135        2.1949260643       -0.0319945893
  C         1.7264816239       -6.3381004344        0.1311913144
  C         1.6996311640       -2.0840769851       -0.0976264740
  C         1.7042527257        2.1452928226       -0.0319212997
  C         4.1676744066       -6.3342286639        0.0576268047
  C         4.1397406972       -2.0587687219       -0.0969473536
  C         4.1534411803        2.1768829877       -0.1275144872
  C        -5.7028359824       -4.9170943996       -0.0464202586
  C        -5.6903715475       -0.6886972732        0.1167067504
  C        -5.7028161206        3.5904936858        0.0253030014
  C        -3.2400383731       -4.9173307968       -0.0149404265
  C        -3.2440664608       -0.6789976192        0.0575847211
  C        -3.2200607188        3.6233012270        0.0304067428
  C        -0.8071344036       -4.9120745114        0.0231883493
  C        -0.7595850487       -0.6695269273       -0.0955962272
  C        -0.7279718621        3.6103021724       -0.0314245015
  C         1.6947762683       -4.9162252186        0.0696002941
  C         1.6958992153       -0.6800054372       -0.1223483237
  C         1.7183943472        3.5827522989        0.0215307843
  C         4.1453486145       -4.9177768399        0.0286593817
  C         4.1718479357       -0.6566457494       -0.0978001454
  C         4.1689413556        3.5990650589       -0.1084566645
  C        -4.4593221089       -4.1972737589       -0.0470323506
  C        -4.4682270350        0.0486444143        0.0361516890
  C        -4.4715429808        4.2921133864        0.0814181627
  C        -2.0381234239       -4.2144261017        0.0668235266
  C        -2.0073154742        0.0590864065       -0.0852662257
  C        -1.9828772769        4.3446911217        0.0478434432
  C         0.4247401981       -4.2174754302        0.0392263055
  C         0.4674947993        0.0366729401       -0.0953493860
  C         0.4760200686        4.3326703704       -0.0363794039
  C         2.9048320729       -4.1990927158        0.0122561812
  C         2.9245412802        0.0252680800       -0.1244951562
  C         2.9552678603        4.3081201021       -0.0574217650
  C         5.3871174519       -4.2063809663        0.0032011732
  C         5.3871174519        0.0536190337        0.0032011732
  C         5.3871174519        4.3136190337        0.0032011732
  C        -4.4646028904       -2.8059397207        0.0249371008
  C        -4.4381612102        1.4615371234       -0.0197713295
  C        -4.4528825481        5.7336190337        0.0032011732
  C        -1.9909075395       -2.7831832808        0.0567934898
  C        -1.9919314307        1.4664477092       -0.0592242913
  C        -1.9928825481        5.7336190337        0.0032011732
  C         0.4699461454       -2.7911003276       -0.0252258103
  C         0.4708730815        1.4657497149       -0.0409591270
  C         0.4671174519        5.7336190337        0.0032011732
  C         2.9362268501       -2.7861178380       -0.1015526215
  C         2.9405884000        1.4605944574       -0.0831889961
  C         2.9271174519        5.7336190337        0.0032011732
  C         5.3871174519       -2.7863809663        0.0032011732
  C         5.3871174519        1.4736190337        0.0032011732
  C         5.3871174519        5.7336190337        0.0032011732
  H         2.5737221047        0.6947769208        1.8568661990
  H         0.3630051937        2.3160603239        3.7950481069
  O         2.6822476638        1.1025960528        2.7244211847
  O         4.2913223092       -0.2704312311        2.8439345670
  O         3.8474228848        0.9839792935        4.5364875330
  O        -0.4126890186        2.6891578498        3.3859845800
  O         1.0900140964        4.1117733218        3.3216081339
  O        -0.8313051894        4.6494851259        2.5046048681
  N         3.6362028433        0.6484926520        3.3174824285
  N        -0.1025620038        3.8744928634        3.0492035469
      70
 i =     3300, time =     3300.000, E =      -129.7264719865
  C        -5.6831995863       -6.3456684757       -0.0045713874
  C        -5.6604848617       -2.1017057468        0.0168403597
  C        -5.6922402990        2.1589581185        0.0096799695
  C        -3.2318899498       -6.3340362841       -0.0689226486
  C        -3.1773511892       -2.1154838433        0.0084098907
  C        -3.2661136816        2.1599434715       -0.1335699639
  C        -0.7609488416       -6.3133886723        0.0141032465
  C        -0.7597007471       -2.0835619554       -0.1170172062
  C        -0.7760148250        2.1757269689       -0.0370639203
  C         1.7113668428       -6.3447487890       -0.0108765048
  C         1.7047334211       -2.0907071539       -0.0401170085
  C         1.6775325786        2.1514563502        0.0190200520
  C         4.1568089812       -6.3412941465        0.0253299693
  C         4.1792210269       -2.0829847395       -0.0250744790
  C         4.1713935402        2.1857907159       -0.0568520310
  C        -5.7024352269       -4.9391903237       -0.0106994003
  C        -5.6886423612       -0.6800049959       -0.0296147057
  C        -5.6954297884        3.5794422281        0.0279955880
  C        -3.2382413201       -4.9421339877       -0.0498923169
  C        -3.2230602382       -0.7070821709       -0.1001910073
  C        -3.2279361212        3.5682951907       -0.0464285047
  C        -0.7349208648       -4.8994231721        0.0100211759
  C        -0.7945669007       -0.6756164539       -0.1596251191
  C        -0.7836094366        3.5982372651       -0.0027973710
  C         1.7091594148       -4.9086676641        0.0719817483
  C         1.6874138902       -0.6596815798       -0.0588834342
  C         1.6769593538        3.5737123019       -0.0528310651
  C         4.1818142980       -4.9199873940        0.0859396616
  C         4.1697267190       -0.6727691848       -0.0557985876
  C         4.1350941562        3.5843981181       -0.1246008409
  C        -4.4757403933       -4.2191308240        0.0165970502
  C        -4.4642006684        0.0120889145       -0.0632961667
  C        -4.4763526532        4.3002282155       -0.0005335965
  C        -1.9992367113       -4.2410823981       -0.0582534175
  C        -2.0016680460        0.0428491080       -0.2041676384
  C        -2.0157754309        4.3092648227       -0.0243164779
  C         0.4906560209       -4.1975562362       -0.0116755593
  C         0.4474009188        0.0316970446       -0.0470685981
  C         0.4443601027        4.2894145846        0.0055896093
  C         2.9520625790       -4.2228999119        0.0800933583
  C         2.9269828424        0.0464170024       -0.0029169570
  C         2.9187190673        4.2897271490       -0.0726245773
  C         5.3865201110       -4.2174817411       -0.0023281277
  C         5.3865201110        0.0425182589       -0.0023281277
  C         5.3865201110        4.3025182589       -0.0023281277
  C        -4.4427099953       -2.8107686670        0.0588405039
  C        -4.4929716865        1.4495106038       -0.1016224838
  C        -4.4534798890        5.7225182589       -0.0023281277
  C        -1.9473761801       -2.7856623981       -0.0776628116
  C        -2.0106568270        1.4629950098       -0.1614910649
  C        -1.9934798890        5.7225182589       -0.0023281277
  C         0.4853025224       -2.7983364395       -0.0326746598
  C         0.4427493530        1.4484548567       -0.0039403951
  C         0.4665201110        5.7225182589       -0.0023281277
  C         2.9566491591       -2.7956004834        0.0413232916
  C         2.9094322146        1.4801624028        0.0106981085
  C         2.9265201110        5.7225182589       -0.0023281277
  C         5.3865201110       -2.7974817411       -0.0023281277
  C         5.3865201110        1.4625182589       -0.0023281277
  C         5.3865201110        5.7225182589       -0.0023281277
  H         3.2823947038        0.8177932721        1.8111538223
  H        -0.0232265936        2.4919349038        3.0123233487
  O         3.0103487192        0.9714944600        2.7862246979
  O         4.8031443429       -0.3387447933        2.9961545879
  O         3.7739946553        0.4161738629        4.8067034309
  O        -0.5248828699        3.1076662172        2.4611774206
  O         0.3814346999        4.0506754392        4.1736481810
  O        -0.7664899798        5.4356963105        2.6523378215
  N         3.8694212458        0.3940711611        3.4857697471
  N        -0.3119662496        4.2242624041        3.1019374886
      70
 i =     3400, time =     3400.000, E =      -129.7208440527
  C        -5.6440588400       -6.3455944408       -0.0161745014
  C        -5.6413505530       -2.0649029944        0.0370903413
  C        -5.6416294173        2.1464683619       -0.0438581594
  C        -3.2090208980       -6.3578183184       -0.0677587386
  C        -3.2038558624       -2.1071266113       -0.0078004566
  C        -3.1975216576        2.1546124403       -0.2812777524
  C        -0.7399732954       -6.3652014447       -0.0371293508
  C        -0.7288261007       -2.0874401067       -0.0805224562
  C        -0.7734059244        2.1931973357       -0.2123158792
  C         1.7166126212       -6.3334698539       -0.0111258507
  C         1.7539376270       -2.0731712344       -0.1099749168
  C         1.7238652994        2.1800757954       -0.2845414867
  C         4.1733616687       -6.3616693910       -0.0097394916
  C         4.2192131049       -2.0826913260        0.0143065272
  C         4.1963729813        2.1722528964       -0.1693780753
  C        -5.6276638647       -4.9383784375       -0.0183766832
  C        -5.6495317570       -0.6738856953       -0.0129192726
  C        -5.6247238326        3.5746681429       -0.0101154023
  C        -3.2044628062       -4.9516227018       -0.0671784381
  C        -3.2016432245       -0.6895746318       -0.1459773529
  C        -3.1946360599        3.5684165415       -0.1549457783
  C        -0.7168912421       -4.9457087482       -0.0901965709
  C        -0.7553100880       -0.6904388903       -0.0829569360
  C        -0.7343171887        3.6287035077       -0.1611273896
  C         1.7174133286       -4.9325908985       -0.0279332785
  C         1.7400843459       -0.6611721587       -0.0738279481
  C         1.7086877638        3.5984272855       -0.2775883567
  C         4.1707581451       -4.9337530635       -0.0158356881
  C         4.1763716480       -0.6353797537       -0.0000657748
  C         4.1694276284        3.5546415549       -0.1864385853
  C        -4.3942745852       -4.2016976409       -0.0472591603
  C        -4.3997230617        0.0149325727       -0.1311041996
  C        -4.4249351550        4.2817200614       -0.0974100038
  C        -1.9678887045       -4.2382442676       -0.0512297170
  C        -1.9654777540        0.0455365515       -0.2303112517
  C        -1.9888068517        4.2902322154       -0.1779198213
  C         0.5123441092       -4.2084310952       -0.0577837708
  C         0.4994920123        0.0441050579       -0.0706381979
  C         0.5116111263        4.3281585203       -0.1337118250
  C         2.9925287746       -4.2101989505       -0.0269987595
  C         2.9598266890        0.0719941151       -0.0947740747
  C         2.9461966799        4.3133700957       -0.1882403829
  C         5.4216479908       -4.2196946534       -0.0422556431
  C         5.4216479908        0.0403053466       -0.0422556431
  C         5.4216479908        4.3003053466       -0.0422556431
  C        -4.4292993286       -2.7868992237        0.0214796240
  C        -4.4090093912        1.4352893879       -0.2039740444
  C        -4.4183520092        5.7203053466       -0.0422556431
  C        -1.9629570885       -2.8480756881       -0.0281838426
  C        -1.9957956586        1.4547672570       -0.2979871219
  C        -1.9583520092        5.7203053466       -0.0422556431
  C         0.4981838657       -2.7663195768       -0.1236205965
  C         0.4777639626        1.4783574879       -0.1220799982
  C         0.5016479908        5.7203053466       -0.0422556431
  C         3.0154077833       -2.7838142335       -0.1052501100
  C         2.9607862522        1.4698626836       -0.2158381406
  C         2.9616479908        5.7203053466       -0.0422556431
  C         5.4216479908       -2.7996946534       -0.0422556431
  C         5.4216479908        1.4603053466       -0.0422556431
  C         5.4216479908        5.7203053466       -0.0422556431
  H         3.1537869197        0.9685005710        2.0327239245
  H        -0.2601816443        2.8451104570        3.2219022524
  O         2.9307121801        0.9970215147        2.9732027468
  O         4.4966379408       -0.5915181509        2.7867741789
  O         3.6142237510       -0.0964811878        4.7296173591
  O        -0.5969076389        3.7446633887        2.8856618091
  O        -0.1015055472        3.8824642339        4.9482702119
  O        -0.7998192266        5.6578155387        3.7603065656
  N         3.5967072320        0.1037859593        3.4885196843
  N        -0.4903207620        4.4986460743        3.8451062968
      70
 i =     3500, time =     3500.000, E =      -129.7230980825
  C        -5.5932055611       -6.3366970276       -0.1888410214
  C        -5.5907150431       -2.0710065954       -0.0347813952
  C        -5.6043306840        2.1705294529       -0.0153374963
  C        -3.1153751346       -6.3389074526       -0.1703333350
  C        -3.1378584596       -2.0533447101       -0.1569079031
  C        -3.1292875329        2.2014881148       -0.0259465986
  C        -0.6614902372       -6.3268349452       -0.0579563069
  C        -0.6934735749       -2.1019626102       -0.1844672003
  C        -0.6334870877        2.1832331189       -0.0806815721
  C         1.7972474087       -6.3221949347       -0.1164862437
  C         1.7867644830       -2.1065604868       -0.2868039197
  C         1.7963750121        2.1780073591       -0.0550835943
  C         4.2406046812       -6.3619305785       -0.1163509360
  C         4.2310545814       -2.0886335889       -0.2019911533
  C         4.2423252149        2.1716346474       -0.1584176116
  C        -5.5973699161       -4.9164937733       -0.1807205996
  C        -5.6027223565       -0.6302411642       -0.0246349058
  C        -5.5674547687        3.5895368635        0.0042906592
  C        -3.1807976818       -4.8954714152       -0.1595226866
  C        -3.1085015242       -0.6455047055       -0.1079273021
  C        -3.1095184551        3.6489540841       -0.0071332304
  C        -0.6687731101       -4.8930248270       -0.1037793354
  C        -0.6801500533       -0.6886859750       -0.1501269411
  C        -0.6269003305        3.5927791168       -0.1250390994
  C         1.7928922543       -4.9100193397       -0.1616004239
  C         1.7858885965       -0.6722665316       -0.2173508338
  C         1.8065601954        3.5807472988       -0.0897603205
  C         4.2828594027       -4.9377552998       -0.1330224369
  C         4.2612476383       -0.6448074772       -0.1906433927
  C         4.2544393003        3.5821950187       -0.1529085270
  C        -4.3838541730       -4.1813483282       -0.1625890728
  C        -4.3473382011        0.0516953471       -0.0942620773
  C        -4.3661714466        4.3225097846        0.0146475200
  C        -1.9127775881       -4.2100312300       -0.0652958133
  C        -1.8592608513        0.0645902365       -0.0643258730
  C        -1.8629732991        4.3121275779       -0.0752219546
  C         0.5797156338       -4.1971037175       -0.2373997882
  C         0.5713395232        0.0372132199       -0.1868820467
  C         0.5688890899        4.2995112964       -0.1034049247
  C         3.0459806321       -4.2326956133       -0.1991313599
  C         3.0101045426        0.0397649032       -0.1938126889
  C         3.0425103402        4.3132005162       -0.1461801958
  C         5.4860055862       -4.2094420348       -0.1155820500
  C         5.4860055862        0.0505579652       -0.1155820500
  C         5.4860055862        4.3105579652       -0.1155820500
  C        -4.3563951064       -2.7706401936       -0.0949586032
  C        -4.3528590677        1.4588570744       -0.0640518959
  C        -4.3539944138        5.7305579652       -0.1155820500
  C        -1.9289739277       -2.7680628400       -0.0984968675
  C        -1.8895417903        1.5064911896       -0.1324237460
  C        -1.8939944138        5.7305579652       -0.1155820500
  C         0.5357963218       -2.7998167878       -0.2733587002
  C         0.5668394135        1.4484282239       -0.0999724324
  C         0.5660055862        5.7305579652       -0.1155820500
  C         3.0005040339       -2.7984403631       -0.2514248384
  C         3.0222609101        1.4506596028       -0.1221063909
  C         3.0260055862        5.7305579652       -0.1155820500
  C         5.4860055862       -2.7894420348       -0.1155820500
  C         5.4860055862        1.4705579652       -0.1155820500
  C         5.4860055862        5.7305579652       -0.1155820500
  H         2.7207271231        1.1882639081        2.2632201282
  H        -0.6973531703        3.3024205111        3.0988750319
  O         2.7127634958        0.9893779604        3.2001143922
  O         3.5201093955       -0.8957994800        2.4958820284
  O         3.1279978225       -0.6086626714        4.5521866218
  O        -0.8579951635        4.2718231518        3.1897129542
  O        -0.3103902231        3.6764551240        5.1629625355
  O        -0.8998897194        5.7864550735        4.6165407975
  N         3.0437040666       -0.1575603711        3.3879374216
  N        -0.6568803058        4.5552238810        4.3638298056
      70
 i =     3600, time =     3600.000, E =      -129.6943985914
  C        -5.4890961367       -6.3438907895       -0.2251671516
  C        -5.5404282117       -2.0555601944       -0.2172900829
  C        -5.5121146517        2.1750336066       -0.0718072742
  C        -3.0292564785       -6.2691447073       -0.1085787252
  C        -3.0877671137       -2.0514901983       -0.0253862844
  C        -3.0263282392        2.2008212206       -0.0517113388
  C        -0.5634400888       -6.3249980292       -0.0865098513
  C        -0.6241084962       -2.0370660118       -0.1748967940
  C        -0.5671174687        2.2262439953       -0.1163886911
  C         1.8733321477       -6.2972495639       -0.1861497536
  C         1.8794510640       -2.0607491666       -0.2541919361
  C         1.8759407416        2.2070005521       -0.0257918120
  C         4.3484997638       -6.3330436995       -0.1268277383
  C         4.2955498101       -2.0407347219       -0.1859122986
  C         4.3549452929        2.2209757079       -0.0428517631
  C        -5.5155386437       -4.9120623655       -0.2679798691
  C        -5.5318353401       -0.6407263978       -0.1720442367
  C        -5.5151198505        3.6105893515       -0.0782337113
  C        -3.0650159343       -4.8619601838       -0.1382290088
  C        -3.0546219628       -0.6322263331       -0.0018136916
  C        -3.0379928447        3.6195667986       -0.0081982855
  C        -0.6107201839       -4.8926656097       -0.0372851928
  C        -0.5988682984       -0.6135466727       -0.2099660178
  C        -0.5596934656        3.6452096048       -0.1190603723
  C         1.8692864243       -4.8740799185       -0.0979917090
  C         1.8863145429       -0.6655272076       -0.2215487334
  C         1.8887114028        3.6333832457       -0.0808739958
  C         4.3206743154       -4.9349440412       -0.1176364386
  C         4.3400593972       -0.6385297745       -0.1819082771
  C         4.3558271524        3.6339748737       -0.0366849083
  C        -4.2738995871       -4.1607352902       -0.2051751766
  C        -4.2983528901        0.0725129145       -0.0808067403
  C        -4.2794310341        4.3225946705       -0.0254288954
  C        -1.8258770560       -4.1612550134       -0.0716296659
  C        -1.8234346474        0.0943311458       -0.1182823990
  C        -1.8200702748        4.3428615341       -0.1477357800
  C         0.5999292860       -4.1664941574       -0.0669466039
  C         0.6536227824        0.0790455326       -0.1351655786
  C         0.6551113095        4.3503517233       -0.1526529061
  C         3.0963929039       -4.1828610324       -0.1316219606
  C         3.1171688988        0.0568109655       -0.1331573803
  C         3.1285620621        4.3179043488       -0.1046690311
  C         5.5635829223       -4.1812248705       -0.1286155443
  C         5.5635829223        0.0787751295       -0.1286155443
  C         5.5635829223        4.3387751295       -0.1286155443
  C        -4.3207723447       -2.7755593691       -0.1944640239
  C        -4.2737152092        1.4968561521        0.0093304990
  C        -4.2764170777        5.7587751295       -0.1286155443
  C        -1.8336069687       -2.7445498555       -0.0674092922
  C        -1.7934765137        1.5156726809       -0.1250629816
  C        -1.8164170777        5.7587751295       -0.1286155443
  C         0.6214114314       -2.7827044714       -0.1894783153
  C         0.6361003517        1.4816501892       -0.0184129795
  C         0.6435829223        5.7587751295       -0.1286155443
  C         3.1018577854       -2.7856054372       -0.2053746000
  C         3.1068201468        1.4703575911       -0.0722301691
  C         3.1035829223        5.7587751295       -0.1286155443
  C         5.5635829223       -2.7612248705       -0.1286155443
  C         5.5635829223        1.4987751295       -0.1286155443
  C         5.5635829223        5.7587751295       -0.1286155443
  H         2.4363247786        1.0520877390        2.7343809371
  H        -1.3624712036        4.0075373399        2.3828829749
  O         2.5344030819        0.8286979302        3.6824114984
  O         2.3573031229       -1.1029157504        2.5200618207
  O         2.3093044886       -1.1583390596        4.7579882532
  O        -1.3576149729        4.7847330715        2.9019947805
  O        -0.2836324549        3.3526782410        4.4261686726
  O        -0.9584722270        5.5994486232        4.8417191939
  N         2.4125297774       -0.4007529919        3.5876681675
  N        -0.8582063351        4.5049243932        4.0566518654
      70
 i =     3700, time =     3700.000, E =      -129.7131882437
  C        -5.4380460692       -6.2612512621       -0.0699489198
  C        -5.4369474247       -2.0032005032       -0.0707394860
  C        -5.4264647206        2.2200720583       -0.1438423541
  C        -2.9662559526       -6.2932887217       -0.0422583067
  C        -2.9600922098       -2.0178579920        0.0073767015
  C        -2.9945137071        2.2293240308       -0.2238085413
  C        -0.5010483193       -6.2709635826       -0.1020062881
  C        -0.4971010993       -2.0084148124       -0.0350884769
  C        -0.5166738743        2.2606809090       -0.2523400494
  C         1.9663050924       -6.2838724122        0.0088051207
  C         1.9525135536       -2.0106171156       -0.0653391168
  C         1.9727610314        2.2627641597       -0.1852964933
  C         4.4039700174       -6.2840559452       -0.0255603876
  C         4.4263803305       -2.0165159091       -0.0741272804
  C         4.4194338754        2.2192769882       -0.0772298572
  C        -5.4430985631       -4.8555147893       -0.1259842163
  C        -5.4449656142       -0.5922252102       -0.0726639330
  C        -5.4182281211        3.6384727788       -0.1912280671
  C        -2.9529862368       -4.8437557876        0.0211505254
  C        -2.9580057361       -0.5772896609       -0.0921066960
  C        -2.9800424767        3.6469434958       -0.2680967283
  C        -0.4790240325       -4.8156972519       -0.0237498450
  C        -0.5384325756       -0.5826565429       -0.0693687425
  C        -0.5425959288        3.6781540928       -0.2888589599
  C         1.9903340275       -4.8795948907       -0.0325146483
  C         1.9186367939       -0.5892701455       -0.0223938406
  C         1.9327094401        3.6951151467       -0.1958595781
  C         4.4417228213       -4.8707388168       -0.0125398446
  C         4.3946010872       -0.5769534326       -0.0427544933
  C         4.4024601650        3.6534407309       -0.1427924578
  C        -4.1610729625       -4.1694689389       -0.1507626902
  C        -4.2111544570        0.0835933669       -0.1164688926
  C        -4.1867963065        4.3702552122       -0.1500130063
  C        -1.7364254772       -4.1380838379        0.0242753715