      70
 i =        0, time =        0.000, E =      -129.7084258088
  C        -5.5000000000       -6.0000000000        0.0000000000
  C        -5.5000000000       -1.7400000000        0.0000000000
  C        -5.5000000000        2.5200000000        0.0000000000
  C        -3.0400000000       -6.0000000000        0.0000000000
  C        -3.0400000000       -1.7400000000        0.0000000000
  C        -3.0400000000        2.5200000000        0.0000000000
  C        -0.5800000000       -6.0000000000        0.0000000000
  C        -0.5800000000       -1.7400000000        0.0000000000
  C        -0.5800000000        2.5200000000        0.0000000000
  C         1.8800000000       -6.0000000000        0.0000000000
  C         1.8800000000       -1.7400000000        0.0000000000
  C         1.8800000000        2.5200000000        0.0000000000
  C         4.3400000000       -6.0000000000        0.0000000000
  C         4.3400000000       -1.7400000000        0.0000000000
  C         4.3400000000        2.5200000000        0.0000000000
  C        -5.5000000000       -4.5800000000        0.0000000000
  C        -5.5000000000       -0.3200000000        0.0000000000
  C        -5.5000000000        3.9400000000        0.0000000000
  C        -3.0400000000       -4.5800000000        0.0000000000
  C        -3.0400000000       -0.3200000000        0.0000000000
  C        -3.0400000000        3.9400000000        0.0000000000
  C        -0.5800000000       -4.5800000000        0.0000000000
  C        -0.5800000000       -0.3200000000        0.0000000000
  C        -0.5800000000        3.9400000000        0.0000000000
  C         1.8800000000       -4.5800000000        0.0000000000
  C         1.8800000000       -0.3200000000        0.0000000000
  C         1.8800000000        3.9400000000        0.0000000000
  C         4.3400000000       -4.5800000000        0.0000000000
  C         4.3400000000       -0.3200000000        0.0000000000
  C         4.3400000000        3.9400000000        0.0000000000
  C        -4.2700000000       -3.8700000000        0.0000000000
  C        -4.2700000000        0.3900000000        0.0000000000
  C        -4.2700000000        4.6500000000        0.0000000000
  C        -1.8100000000       -3.8700000000        0.0000000000
  C        -1.8100000000        0.3900000000        0.0000000000
  C        -1.8100000000        4.6500000000        0.0000000000
  C         0.6500000000       -3.8700000000        0.0000000000
  C         0.6500000000        0.3900000000        0.0000000000
  C         0.6500000000        4.6500000000        0.0000000000
  C         3.1100000000       -3.8700000000        0.0000000000
  C         3.1100000000        0.3900000000        0.0000000000
  C         3.1100000000        4.6500000000        0.0000000000
  C         5.5700000000       -3.8700000000        0.0000000000
  C         5.5700000000        0.3900000000        0.0000000000
  C         5.5700000000        4.6500000000        0.0000000000
  C        -4.2700000000       -2.4500000000        0.0000000000
  C        -4.2700000000        1.8100000000        0.0000000000
  C        -4.2700000000        6.0700000000        0.0000000000
  C        -1.8100000000       -2.4500000000        0.0000000000
  C        -1.8100000000        1.8100000000        0.0000000000
  C        -1.8100000000        6.0700000000        0.0000000000
  C         0.6500000000       -2.4500000000        0.0000000000
  C         0.6500000000        1.8100000000        0.0000000000
  C         0.6500000000        6.0700000000        0.0000000000
  C         3.1100000000       -2.4500000000        0.0000000000
  C         3.1100000000        1.8100000000        0.0000000000
  C         3.1100000000        6.0700000000        0.0000000000
  C         5.5700000000       -2.4500000000        0.0000000000
  C         5.5700000000        1.8100000000        0.0000000000
  C         5.5700000000        6.0700000000        0.0000000000
  H        -0.5400040000        0.0790000000        4.4987520000
  H         1.2703830000        1.7900810000        2.4045710000
  O        -0.8433520000       -0.8589710000        4.4533490000
  O        -1.6662770000        0.0841590000        2.5535540000
  O        -1.9061030000       -2.0671020000        2.8988840000
  O         1.5795730000        1.3344880000        3.2215120000
  O         3.3651620000        1.9970140000        1.9218700000
  O         3.7317740000        1.0293410000        3.8959300000
  N        -1.5412190000       -0.9612120000        3.1631170000
  N         3.0500640000        1.4732020000        2.9884600000
      70
 i =      100, time =      100.000, E =      -129.7417317217
  C        -5.4961040273       -5.9653148386       -0.0215061381
  C        -5.5158420183       -1.7416787208       -0.1166095435
  C        -5.4897622693        2.5277677403       -0.0118487267
  C        -3.0715622545       -5.9818300142        0.0326765057
  C        -3.0190304971       -1.7531529552       -0.0233704845
  C        -3.0659578132        2.5107011792       -0.0528153005
  C        -0.5823268005       -5.9965090697        0.0625739063
  C        -0.5548407567       -1.7402921502       -0.1893941515
  C        -0.6084432577        2.5383079726       -0.2780423620
  C         1.8896157446       -5.9945152797        0.0267984918
  C         1.8947862327       -1.6904589502       -0.2425813962
  C         1.8486618794        2.5625239657       -0.3026755444
  C         4.3383340075       -6.0073072366       -0.0131391543
  C         4.3423517873       -1.7008943934       -0.1028407627
  C         4.3221427524        2.5092299114       -0.0646176575
  C        -5.4988175785       -4.5476183646       -0.0374001778
  C        -5.5073663739       -0.3230702486       -0.1142262166
  C        -5.5218628202        3.9455283400       -0.0136929339
  C        -3.0390906827       -4.5806170016        0.0339381198
  C        -3.0747309619       -0.3495160605       -0.0591158863
  C        -3.0691453221        3.9378038533        0.0015538466
  C        -0.5659723152       -4.5889731177        0.0970685697
  C        -0.5757489347       -0.3095739807       -0.3006849536
  C        -0.5873748187        3.9533628570       -0.2010520347
  C         1.8853002748       -4.5638763429        0.0591691912
  C         1.8633454689       -0.2724347986       -0.2879491541
  C         1.8523866638        3.9740660312       -0.1585103287
  C         4.3562860566       -4.5955994600        0.0251479900
  C         4.3191365765       -0.3058528754       -0.1087228861
  C         4.3162949386        3.9555538754       -0.0092230051
  C        -4.2692516232       -3.8531110500       -0.0226898959
  C        -4.2926532846        0.3778977689       -0.0665286473
  C        -4.2802936277        4.6677005389        0.0309121040
  C        -1.7928797787       -3.8724016838        0.0605245940
  C        -1.8296372710        0.3852876224       -0.2147475268
  C        -1.8204154014        4.6811728386       -0.0425657879
  C         0.6467253240       -3.8723143242        0.0306533157
  C         0.6433866509        0.4094105771       -0.3181121585
  C         0.6430576456        4.6821136577       -0.1699841948
  C         3.1126500753       -3.8613214522       -0.0710084774
  C         3.0894084448        0.4254175421       -0.1895105200
  C         3.0567287002        4.6576105664       -0.0105301230
  C         5.5635238698       -3.8625877471       -0.0181482167
  C         5.5635238698        0.3974122529       -0.0181482167
  C         5.5635238698        4.6574122529       -0.0181482167
  C        -4.2851339372       -2.4541172566       -0.0303209607
  C        -4.2906349739        1.8132998065       -0.0302960018
  C        -4.2764761302        6.0774122529       -0.0181482167
  C        -1.7760697886       -2.4364674115       -0.0509837832
  C        -1.8349587457        1.7926933596       -0.2152029078
  C        -1.8164761302        6.0774122529       -0.0181482167
  C         0.6821190517       -2.4537423368       -0.1377776571
  C         0.6438186009        1.8270091820       -0.3420236372
  C         0.6435238698        6.0774122529       -0.0181482167
  C         3.1270462020       -2.4368252377       -0.1850755846
  C         3.0686072470        1.8425180368       -0.2033275968
  C         3.1035238698        6.0774122529       -0.0181482167
  C         5.5635238698       -2.4425877471       -0.0181482167
  C         5.5635238698        1.8174122529       -0.0181482167
  C         5.5635238698        6.0774122529       -0.0181482167
  H        -0.5510604185       -0.0354218559        4.1069393489
  H         2.3438922072        1.8448557790        2.3881329541
  O        -0.5388720424       -1.0160803702        4.0192142563
  O        -2.1555351143       -0.0587186278        2.7742256532
  O        -2.1246078809       -2.2537921852        3.0250618794
  O         2.1207807853        1.3970195724        3.2298958204
  O         3.8584525051        2.5637547108        3.8864154205
  O         3.3963636316        0.5578249617        4.6548156737
  N        -1.6712110197       -1.1356383052        3.2328359155
  N         3.1316097331        1.5191509933        3.9869293831
      70
 i =      200, time =      200.000, E =      -129.7469392410
  C        -5.5230413512       -5.9754190336       -0.0997138375
  C        -5.4949852148       -1.7080119495       -0.0896503596
  C        -5.4970171792        2.5522534943       -0.1813994280
  C        -3.0703315671       -5.9614161441       -0.0851539091
  C        -3.0416534586       -1.7396877354       -0.3003116999
  C        -3.0686648937        2.5342428480       -0.1575476010
  C        -0.5833623064       -5.9545936541       -0.1180594316
  C        -0.5673857410       -1.7243455992       -0.2839035542
  C        -0.5883974974        2.5294098952       -0.1534669859
  C         1.8838966994       -5.9729076443       -0.0420214788
  C         1.8850351149       -1.7308195009       -0.1710327860
  C         1.8746362018        2.5504324728        0.0485754561
  C         4.3366709426       -5.9848222996       -0.1013298329
  C         4.3463649856       -1.7203838026       -0.0376891094
  C         4.3396492912        2.5394153468        0.0595475964
  C        -5.5416961606       -4.5702876526       -0.1409012706
  C        -5.4923962495       -0.3100094333       -0.1628476123
  C        -5.5045228572        3.9697317866       -0.1120891259
  C        -3.0312592930       -4.5355883746       -0.1722803924
  C        -3.0454803892       -0.3107403173       -0.3080086603
  C        -3.0572858911        3.9380247120       -0.0866031108
  C        -0.6038246034       -4.5473830603       -0.2471215488
  C        -0.6202763927       -0.2976717370       -0.1859580165
  C        -0.5827249042        3.9403229474       -0.1223041791
  C         1.8827188877       -4.5713236658       -0.1668187101
  C         1.8503492538       -0.3002314815       -0.0634773355
  C         1.8954965347        3.9669047027       -0.0012945867
  C         4.3328962048       -4.5697038494       -0.0689008492
  C         4.3167615553       -0.3039522064       -0.0137740198
  C         4.3614616738        3.9612554233       -0.0577943362
  C        -4.2911441146       -3.8651044599       -0.1977574704
  C        -4.2704514111        0.3922225592       -0.2804514921
  C        -4.2685874363        4.6547709370       -0.1028623722
  C        -1.8205336335       -3.8173662452       -0.1936119148
  C        -1.8441273048        0.4159199873       -0.1826261862
  C        -1.8010264101        4.6676504549       -0.0638969370
  C         0.6420541379       -3.8716941721       -0.2817437050
  C         0.6077041245        0.4105080394       -0.1148608465
  C         0.6489657592        4.6779952598       -0.0689505339
  C         3.1166382240       -3.8621457746       -0.1018674333
  C         3.1102519746        0.4065464633        0.0581898670
  C         3.1381672852        4.6870801459       -0.0427530718
  C         5.5652231910       -3.8511744784       -0.0485057161
  C         5.5652231910        0.4088255216       -0.0485057161
  C         5.5652231910        4.6688255216       -0.0485057161
  C        -4.2751589161       -2.4339835278       -0.1851252877
  C        -4.2923408527        1.8223570664       -0.2299959948
  C        -4.2747768090        6.0888255216       -0.0485057161
  C        -1.8104697555       -2.4488139162       -0.2593295444
  C        -1.8209032242        1.8272219448       -0.1145002749
  C        -1.8147768090        6.0888255216       -0.0485057161
  C         0.6543762317       -2.4274208445       -0.2889649854
  C         0.6426324010        1.8361006039       -0.0840635178
  C         0.6452231910        6.0888255216       -0.0485057161
  C         3.1103797065       -2.4602380865       -0.1156655076
  C         3.1053753781        1.8522300339        0.1292674356
  C         3.1052231910        6.0888255216       -0.0485057161
  C         5.5652231910       -2.4311744784       -0.0485057161
  C         5.5652231910        1.8288255216       -0.0485057161
  C         5.5652231910        6.0888255216       -0.0485057161
  H        -0.3133012210       -0.1855686182        3.0734819710
  H         2.8641544141        2.9119350380        3.2731243816
  O        -0.4883362719       -1.1308552457        2.9619977748
  O        -2.4250769644       -0.2584715322        3.4128578502
  O        -2.2558607235       -2.3997809329        3.3914798200
  O         3.0797948346        1.9460193205        3.1988911528
  O         3.3600990384        2.4268031580        5.2659309601
  O         3.2135499033        0.2383387292        4.5771713957
  N        -1.7545649557       -1.2944769951        3.2850048310
  N         3.1890711277        1.5727090049        4.3716916625
      70
 i =      300, time =      300.000, E =      -129.7280776457
  C        -5.5026864685       -5.9780875815       -0.1257610836
  C        -5.5144480595       -1.7029129749       -0.1075645288
  C        -5.4748610615        2.5542016325       -0.0967697532
  C        -3.0463305162       -5.9707739760       -0.0921869210
  C        -3.0527706679       -1.6881973531       -0.0191469823
  C        -3.0083682767        2.5659168248        0.0136032801
  C        -0.5753671748       -5.9756907072       -0.1337051356
  C        -0.5866353543       -1.6850345579       -0.1873061336
  C        -0.5482817470        2.5632921413        0.1174365151
  C         1.9013352224       -5.9938150636       -0.0817296780
  C         1.9214768042       -1.7347922339       -0.0817919612
  C         1.8650317920        2.5511964763       -0.0736163304
  C         4.3323397330       -5.9746819164       -0.0252303072
  C         4.3423123747       -1.7177041668       -0.0070148450
  C         4.3393371630        2.5392560029       -0.1028525279
  C        -5.4815474512       -4.5486982639       -0.1171014117
  C        -5.5073976679       -0.2946583847       -0.1098269155
  C        -5.4815030031        3.9544164962       -0.0697420809
  C        -3.0639896894       -4.5407158119       -0.1516604312
  C        -3.0520535258       -0.2749421307        0.0158909211
  C        -3.0119893843        3.9915372623        0.0401990973
  C        -0.6234305510       -4.5680727162       -0.1709756467
  C        -0.5745757426       -0.2664781822       -0.1532800732
  C        -0.5435507744        3.9825264725       -0.0177567293
  C         1.8670606102       -4.5704703558       -0.0213294694
  C         1.9005264435       -0.3181995094       -0.0522607751
  C         1.8975939675        3.9518363964       -0.1998897333
  C         4.3316206700       -4.5464536743       -0.0103909384
  C         4.3568456491       -0.3092342547        0.0042871235
  C         4.3794281520        3.9842482445       -0.1059779489
  C        -4.3014576600       -3.8125620974       -0.1111523448
  C        -4.2787520440        0.4351030293        0.0186445796
  C        -4.2499811608        4.6807984186        0.0053562419
  C        -1.8326695716       -3.8295033078       -0.2261797908
  C        -1.8063267963        0.4344820637       -0.0133907166
  C        -1.7654178421        4.6823804145       -0.0059335995
  C         0.6160758322       -3.8375152618       -0.0423931320
  C         0.6611315171        0.4145654315       -0.0367312346
  C         0.6759204311        4.6862882374       -0.1345838228
  C         3.0833101128       -3.8801344731        0.0088611787
  C         3.1330760988        0.3843242433       -0.0483209229
  C         3.1464254077        4.6861646441       -0.1752419235
  C         5.5745505078       -3.8395755480       -0.1002165145
  C         5.5745505078        0.4204244520       -0.1002165145
  C         5.5745505078        4.6804244520       -0.1002165145
  C        -4.2844407608       -2.3847513196       -0.0719758696
  C        -4.2437973379        1.8349269080       -0.0416022568
  C        -4.2654494922        6.1004244520       -0.1002165145
  C        -1.8304401356       -2.4115858559       -0.1408578453
  C        -1.7992058795        1.8694191663        0.0501566190
  C        -1.8054494922        6.1004244520       -0.1002165145
  C         0.6398669846       -2.4258810393       -0.0660959334
  C         0.6662039393        1.8460928064        0.0735429520
  C         0.6545505078        6.1004244520       -0.1002165145
  C         3.1153111199       -2.4510671325       -0.0086934664
  C         3.1152911126        1.8060165410       -0.0931750018
  C         3.1145505078        6.1004244520       -0.1002165145
  C         5.5745505078       -2.4195755480       -0.1002165145
  C         5.5745505078        1.8404244520       -0.1002165145
  C         5.5745505078        6.1004244520       -0.1002165145
  H        -1.2281902504       -0.3136488256        2.0607076131
  H         4.3304169025        2.9740188393        3.9505256371
  O        -1.1389131609       -1.2769416139        2.2631918315
  O        -2.2717453032       -0.4422947021        3.9547634097
  O        -2.1332172028       -2.6668894286        3.7179325414
  O         3.9824805741        2.3911365551        3.2281115655
  O         2.5074554536        2.1172389431        4.8086161477
  O         3.0807707645        0.3739076037        3.3966913847
  N        -1.8084770500       -1.4331576644        3.2569174764
  N         3.1561956103        1.5174099333        3.7725864999
      70
 i =      400, time =      400.000, E =      -129.7251130103
  C        -5.4688799893       -5.9727062939        0.0022721164
  C        -5.4880584804       -1.7035969864        0.0997802652
  C        -5.4692218604        2.5820257750       -0.0545725074
  C        -3.0066490059       -5.9614078690       -0.0567232531
  C        -2.9764865952       -1.6964440824        0.0739301743
  C        -3.0091467865        2.5630739425       -0.1832578822
  C        -0.5106926116       -5.9553468439        0.0629336405
  C        -0.5459280931       -1.7130709290       -0.0235545657
  C        -0.5626586843        2.5793364069       -0.1075422141
  C         1.9046615568       -5.9490327128       -0.0391203243
  C         1.9366074653       -1.6933670293       -0.2306473091
  C         1.9188197924        2.5467214986       -0.1456928192
  C         4.3752658683       -5.9593144250       -0.0393466479
  C         4.3765380213       -1.6827323999       -0.2203380670
  C         4.3564438038        2.5820875637       -0.0977635140
  C        -5.4775115562       -4.5278022926        0.0433110378
  C        -5.4548799892       -0.2778102558        0.0307155377
  C        -5.4452448878        3.9899041120       -0.0699090686
  C        -3.0334500208       -4.5558690927       -0.0140817571
  C        -2.9924319133       -0.2831248964       -0.0499010586
  C        -2.9922369077        3.9901220813       -0.1125938024
  C        -0.5411277276       -4.5391369739        0.0758032518
  C        -0.5157211929       -0.2937310709       -0.0798904238
  C        -0.5330736292        3.9950465219        0.0284954426
  C         1.9170227850       -4.5125161699       -0.0470455868
  C         1.8986019423       -0.2858866585       -0.2607982842
  C         1.9333095815        3.9523847290       -0.0809952708
  C         4.3875645381       -4.5429997278       -0.0623654602
  C         4.3593664996       -0.2542529398       -0.2481485824
  C         4.3471846147        3.9877470722       -0.0777943026
  C        -4.2660587547       -3.8242266620        0.0787227694
  C        -4.2392309655        0.4392784518       -0.1110413372
  C        -4.2225095243        4.7065159482       -0.0586696676
  C        -1.8105206825       -3.8226035164        0.0728252109
  C        -1.7450949967        0.4224054619       -0.0695116696
  C        -1.7483572781        4.6969031939       -0.0052866825
  C         0.6898433116       -3.7872480838       -0.0690985448
  C         0.6905055921        0.4269905162       -0.1710488014
  C         0.7183219008        4.6626372739       -0.0076254570
  C         3.1598405532       -3.8569348264       -0.0699775397
  C         3.1221553443        0.4445790649       -0.2628461794
  C         3.1282149044        4.6910946172       -0.1053202757
  C         5.6053443691       -3.8272260233       -0.0386672204
  C         5.6053443691        0.4327739767       -0.0386672204
  C         5.6053443691        4.6927739767       -0.0386672204
  C        -4.2160815529       -2.3947408167        0.1448526605
  C        -4.2435280777        1.8415513890       -0.1108889220
  C        -4.2346556309        6.1127739767       -0.0386672204
  C        -1.7710113613       -2.3976695116        0.1093672956
  C        -1.7665169224        1.8608596881       -0.1032665102
  C        -1.7746556309        6.1127739767       -0.0386672204
  C         0.6808371086       -2.3868027138       -0.1933842190
  C         0.6648998280        1.8496585235       -0.1670029952
  C         0.6853443691        6.1127739767       -0.0386672204
  C         3.1570939416       -2.4263565903       -0.1809225351
  C         3.1384665070        1.8382012298       -0.1774055719
  C         3.1453443691        6.1127739767       -0.0386672204
  C         5.6053443691       -2.4072260233       -0.0386672204
  C         5.6053443691        1.8527739767       -0.0386672204
  C         5.6053443691        6.1127739767       -0.0386672204
  H        -1.1150233910       -0.4550423173        3.0854756199
  H         3.3763329703        2.7341787574        4.1200967064
  O        -1.2489930264       -1.4214947317        3.1546928247
  O        -2.5804586682       -0.7270144447        4.7790991520
  O        -2.2965279757       -2.8884383584        4.3644885682
  O         3.9707094862        2.2996523689        3.4864631544
  O         1.8092796846        2.0611504729        3.0643174887
  O         3.3098221378        0.6993358991        2.2172776645
  N        -1.9656964769       -1.6457070316        4.0219889484
  N         2.9744878739        1.5953367404        2.8605334861
      70
 i =      500, time =      500.000, E =      -129.7204171626
  C        -5.4235013939       -5.9572707463       -0.0280803759
  C        -5.3922508907       -1.7126331309        0.0473780298
  C        -5.4059705578        2.5598079514        0.1259696568
  C        -2.9596044562       -5.9485812614       -0.0311259864
  C        -2.9578901923       -1.7106680835       -0.1292008990
  C        -2.9813399125        2.5868253657       -0.0778669062
  C        -0.4903831409       -5.9252707825       -0.0493496021
  C        -0.4722223853       -1.6951595422       -0.1800149042
  C        -0.5578679755        2.6010350900       -0.3671372089
  C         1.9450308273       -5.9410114086        0.0438315590
  C         1.9783034443       -1.6656257416       -0.1608153532
  C         1.9072869693        2.5966339480       -0.4478361560
  C         4.3919066797       -5.9320867171        0.0861982767
  C         4.4650436541       -1.6601585173        0.0187284935
  C         4.4164732372        2.5626612045       -0.1572485816
  C        -5.4013194189       -4.5349178649       -0.0576779628
  C        -5.4349636090       -0.3072747180        0.0593134752
  C        -5.4238816775        3.9775965089        0.1118425967
  C        -2.9706943675       -4.5479059052       -0.1781277931
  C        -2.9494885595       -0.2774794095       -0.1505970570
  C        -2.9795201926        3.9966800052        0.0302171413
  C        -0.4761783534       -4.5061483699       -0.0981120075
  C        -0.5093727251       -0.2596897046       -0.2867905345
  C        -0.5247787583        4.0299327641       -0.2130212782
  C         1.9612770440       -4.5240704301        0.0192703688
  C         1.9751799298       -0.2472034435       -0.2112509717
  C         1.9592355527        4.0266749743       -0.2937767162
  C         4.4039689048       -4.4983847962        0.0496555445
  C         4.4021799930       -0.2539731181        0.0354876447
  C         4.4190661232        3.9845290601       -0.0930614703
  C        -4.1786833668       -3.8306520536       -0.1132405465
  C        -4.1900130231        0.4207033864       -0.0123216338
  C        -4.1839713143        4.6945234024        0.1964785289
  C        -1.7376664529       -3.8119515457       -0.1880359497
  C        -1.7473705966        0.4588810724       -0.2715724030
  C        -1.7549105188        4.6825837077       -0.0071027138
  C         0.7397645088       -3.7815165983       -0.0470843277
  C         0.7272413697        0.4516583116       -0.3274481009
  C         0.7319248432        4.7029631315       -0.1401698110
  C         3.2063078531       -3.7581447694       -0.0547177039
  C         3.2066488578        0.4859984954       -0.1666477483
  C         3.1789378273        4.7272950495       -0.1431248067
  C         5.6471569704       -3.8155777243        0.0153785022
  C         5.6471569704        0.4444222757        0.0153785022
  C         5.6471569704        4.7044222757        0.0153785022
  C        -4.1779985245       -2.4057357046       -0.0696046775
  C        -4.1701027805        1.8413436666        0.0348017685
  C        -4.1928430296        6.1244222757        0.0153785022
  C        -1.7144671260       -2.4192062809       -0.1794918761
  C        -1.7683353472        1.8737746722       -0.2888150104
  C        -1.7328430296        6.1244222757        0.0153785022
  C         0.7592996187       -2.3545296011       -0.1255275847
  C         0.6809614803        1.8713187367       -0.4205349306
  C         0.7271569704        6.1244222757        0.0153785022
  C         3.2374528555       -2.3701181665       -0.1019872727
  C         3.1561055051        1.8894506439       -0.3493369315
  C         3.1871569704        6.1244222757        0.0153785022
  C         5.6471569704       -2.3955777243        0.0153785022
  C         5.6471569704        1.8644222757        0.0153785022
  C         5.6471569704        6.1244222757        0.0153785022
  H        -1.0381371493       -0.6289387055        3.8685327802
  H         2.7792518342        3.4975627992        3.3526558475
  O        -1.0906883827       -1.5953319344        3.9278130452
  O        -3.0371569881       -1.0092459893        4.7269909359
  O        -2.4874045703       -3.0528125809        4.5180084490
  O         3.0868858452        2.6336594652        3.6528255161
  O         1.7712130510        1.9466793164        2.0412865359
  O         3.2375003498        0.4617915088        2.9942748985
  N        -2.1408567776       -1.8268999760        4.3756585484
  N         2.7125605326        1.6955884956        2.8649289690
      70
 i =      600, time =      600.000, E =      -129.7401342086
  C        -5.3913222652       -5.9367652350       -0.0338379031
  C        -5.3589551193       -1.6581133286       -0.0290451127
  C        -5.3896048897        2.5995180814       -0.1071951778
  C        -2.9155045980       -5.9355255349       -0.0374787624
  C        -2.9000811884       -1.6632497222       -0.1244127537
  C        -2.9241511337        2.5878763650       -0.2783068484
  C        -0.4431054655       -5.9235943591       -0.0217935572
  C        -0.4500946344       -1.6256568505       -0.2384263880
  C        -0.4570554356        2.6073915979       -0.2433500847
  C         1.9891908904       -5.9077678410       -0.0719494521
  C         2.0126991871       -1.6668965304       -0.2383622188
  C         1.9608795938        2.5737456310        0.0707014279
  C         4.4597717846       -5.9367037641       -0.1221372018
  C         4.5027801000       -1.6351048975       -0.1536528009
  C         4.4317459991        2.5967699589        0.0443190552
  C        -5.4052254447       -4.5164446174       -0.0275036495
  C        -5.3531664132       -0.2469929997       -0.0879371593
  C        -5.3853386815        4.0260345835       -0.0272474748
  C        -2.9208025637       -4.4959695883       -0.0473812926
  C        -2.8822317932       -0.2546833589       -0.2952652129
  C        -2.9200766893        4.0017134010       -0.1006281037
  C        -0.4796951763       -4.5069652130       -0.0856600006
  C        -0.4507463641       -0.2069165750       -0.3588378004
  C        -0.4415446312        4.0179098129       -0.1238336768
  C         2.0076225517       -4.4881166636       -0.1940797265
  C         1.9776573371       -0.2283384240       -0.2003373763
  C         2.0022067262        3.9871542331        0.0081062893
  C         4.4875392950       -4.5056018143       -0.1563865093
  C         4.4981078688       -0.2298890135       -0.1285777065
  C         4.4654064991        4.0011440244       -0.0058427848
  C        -4.1660626970       -3.8091205537       -0.0363853183
  C        -4.1246305834        0.4487691979       -0.1893156826
  C        -4.1293544769        4.7348336499       -0.0319158719
  C        -1.6970800744       -3.7835172541       -0.0672418262