#     Step Nr.          Time[fs]        Kin.[a.u.]          Temp[K]            Pot.[a.u.]        Cons Qty[a.u.]        UsedTime[s]
         0            0.000000         0.084078947       300.000000000      -129.708425809      -129.623871839         0.000000000
        10           10.000000         0.102309853       365.049240094      -129.728085311      -129.624121378         0.250737939
        20           20.000000         0.111910958       399.306705575      -129.738953986      -129.623975842         0.260831076
        30           30.000000         0.078047891       278.480738418      -129.740608963      -129.657979911         0.245692418
        40           40.000000         0.078700876       280.810638197      -129.742750733      -129.658313528         0.240483377
        50           50.000000         0.081236760       289.858862822      -129.746115168      -129.657978240         0.267913042
        60           60.000000         0.085089181       303.604588679      -129.751548279      -129.658380804         0.274668385
        70           70.000000         0.064984178       231.868428778      -129.732283845      -129.658260748         0.250212456
        80           80.000000         0.082714664       295.132134464      -129.750837126      -129.658271789         0.276405298
        90           90.000000         0.072385177       258.275750256      -129.741095837      -129.658192288         0.248316663
       100          100.000000         0.072491030       258.653439820      -129.741731722      -129.658151205         0.249284413
       110          110.000000         0.068872818       245.743388285      -129.738142309      -129.657811490         0.264372909
       120          120.000000         0.070921569       253.053486527      -129.740492926      -129.657935574         0.233668135
       130          130.000000         0.086929692       310.171670581      -129.756913637      -129.658364234         0.235893085
       140          140.000000         0.068707271       245.152704609      -129.738475853      -129.658222326         0.258210352
       150          150.000000         0.073128290       260.927233628      -129.742946730      -129.658543205         0.223978416
       160          160.000000         0.076556739       273.160196901      -129.745551928      -129.658246827         0.293343551
       170          170.000000         0.066509751       237.311786745      -129.734789737      -129.658355648         0.238780741
       180          180.000000         0.077696761       277.227879078      -129.745216608      -129.658693636         0.269069079
       190          190.000000         0.060143559       214.596736408      -129.725965255      -129.658589439         0.241059235
       200          200.000000         0.082334930       293.777213580      -129.746939241      -129.659634601         0.272613459
       210          210.000000         0.072397895       258.321126015      -129.734976355      -129.660279203         0.242612713
       220          220.000000         0.077375762       276.082531058      -129.736977904      -129.660793476         0.240850079
       230          230.000000         0.076262898       272.111748793      -129.732230870      -129.660614911         0.261774894
       240          240.000000         0.077923086       278.035424481      -129.729398535      -129.659812847         0.249638893
       250          250.000000         0.087780379       313.206985838      -129.735419036      -129.659398885         0.275082296
       260          260.000000         0.077035798       274.869513194      -129.721823341      -129.659367219         0.239547943
       270          270.000000         0.081200455       289.729322186      -129.723810846      -129.659177616         0.280409574
       280          280.000000         0.091743793       327.348744170      -129.733222689      -129.659731407         0.281693656
       290          290.000000         0.090000116       321.127172786      -129.729884234      -129.659547921         0.220044875
       300          300.000000         0.089635245       319.825287037      -129.728077646      -129.659018742         0.256568653
       310          310.000000         0.092573418       330.308907755      -129.730304153      -129.659165700         0.274148630
       320          320.000000         0.101269231       361.336224069      -129.738590219      -129.659299543         0.265306901
       330          330.000000         0.087236075       311.264867543      -129.724128584      -129.659071263         0.262931117
       340          340.000000         0.091241365       325.556045762      -129.728671185      -129.659604212         0.273899147
       350          350.000000         0.099097626       353.587773110      -129.737169185      -129.660018148         0.230941075
       360          360.000000         0.099277965       354.231237105      -129.737613647      -129.659599141         0.297980876
       370          370.000000         0.091958204       328.113778925      -129.730123690      -129.658563444         0.237380854
       380          380.000000         0.086694283       309.331714015      -129.725551116      -129.658080493         0.248031383
       390          390.000000         0.095149571       339.500815194      -129.735782322      -129.658733720         0.262515465
       400          400.000000         0.083169125       296.753686671      -129.725113010      -129.658668338         0.244211901
       410          410.000000         0.078213650       279.072177642      -129.721348844      -129.658522311         0.258630474
       420          420.000000         0.074705507       266.554859240      -129.718629419      -129.658227204         0.283697271
       430          430.000000         0.097820971       349.032573036      -129.743228922      -129.658577735         0.316194832
       440          440.000000         0.079035235       282.003656525      -129.725293916      -129.658126676         0.239787865
       450          450.000000         0.072112222       257.301825273      -129.718346922      -129.657169692         0.266891570
       460          460.000000         0.087519050       312.274544790      -129.734523263      -129.657100167         0.258860570
       470          470.000000         0.072216407       257.673563818      -129.720111958      -129.657100123         0.258812299
       480          480.000000         0.072049053       257.076432154      -129.719810324      -129.656277586         0.314726750
       490          490.000000         0.064036911       228.488506988      -129.712232855      -129.656304852         0.251553802
       500          500.000000         0.071239651       254.188426389      -129.720417163      -129.657072256         0.271453199
       510          510.000000         0.078566309       280.330492228      -129.727603215      -129.656905411         0.258864357
       520          520.000000         0.084047355       299.887275003      -129.732479953      -129.656417438         0.286560066
       530          530.000000         0.085613255       305.474524424      -129.733332907      -129.655865143         0.252754896
       540          540.000000         0.074398608       265.459820885      -129.722543469      -129.656461487         0.257209227
       550          550.000000         0.094483853       337.125483906      -129.743181191      -129.657296752         0.254953331
       560          560.000000         0.083537364       298.067590737      -129.731581780      -129.656826074         0.267657902
       570          570.000000         0.081210368       289.764691569      -129.729087575      -129.656874833         0.269758062
       580          580.000000         0.095592963       341.082873823      -129.743188082      -129.656852478         0.266507534
       590          590.000000         0.089628265       319.800380511      -129.737002325      -129.656768531         0.248532127
       600          600.000000         0.092527964       330.146726911      -129.740134209      -129.656947153         0.265819540
       610          610.000000         0.088825642       316.936561308      -129.736879897      -129.657250065         0.263878957
       620          620.000000         0.079408213       283.334470144      -129.729102811      -129.658654373         0.258471338
       630          630.000000         0.092172461       328.878265656      -129.743144472      -129.659635242         0.256718661
       640          640.000000         0.090715274       323.678912767      -129.740911242      -129.658297501         0.293876905
       650          650.000000         0.089721271       320.132235607      -129.739560034      -129.657158012         0.242851085
       660          660.000000         0.083178316       296.786478525      -129.733533832      -129.656726338         0.260791943
       670          670.000000         0.104116219       371.494491866      -129.756170126      -129.657209238         0.340578207
       680          680.000000         0.083008840       296.181776874      -129.737676701      -129.658308492         0.233845463
       690          690.000000         0.074938106       267.384790814      -129.732093344      -129.659367966         0.249097507
       700          700.000000         0.081027427       289.111945900      -129.739376177      -129.659085949         0.269105945
       710          710.000000         0.084229815       300.538308360      -129.714390641      -129.629497884         0.288777288
       720          720.000000         0.077751663       277.423773794      -129.708599386      -129.628428511         0.236724919
       730          730.000000         0.081322474       290.164697453      -129.713207607      -129.627971299         0.300123277
       740          740.000000         0.078680159       280.736715844      -129.712266018      -129.627760969         0.275915868
       750          750.000000         0.079081805       282.169819788      -129.715950849      -129.629215579         0.227425125
       760          760.000000         0.092228674       329.078835758      -129.730684820      -129.628832968         0.278630828
       770          770.000000         0.089838965       320.552176076      -129.729516320      -129.627802091         0.301045913
       780          780.000000         0.084082733       300.013505964      -129.726174712      -129.627851812         0.236979881
       790          790.000000         0.093593771       333.949606931      -129.737953476      -129.627718305         0.257859250
       800          800.000000         0.076279350       272.170450132      -129.723067882      -129.628008005         0.269966540
       810          810.000000         0.086223581       307.652212912      -129.735965033      -129.628980242         0.133483162
       820          820.000000         0.087106993       310.804292896      -129.738552682      -129.628845492         0.270061031
       830          830.000000         0.069264363       247.140450640      -129.722068950      -129.628778387         0.267530775
       840          840.000000         0.088207040       314.729343329      -129.742603968      -129.629117254         0.249736340
       850          850.000000         0.085010078       303.322342367      -129.738820384      -129.627390113         0.270843746
       860          860.000000         0.071459209       254.971824611      -129.725908130      -129.627069065         0.257958842
       870          870.000000         0.084048175       299.890203356      -129.738668923      -129.626539065         0.241027404
       880          880.000000         0.083226082       296.956913660      -129.738427824      -129.626336572         0.275558200
       890          890.000000         0.086961852       310.286420869      -129.743636178      -129.627059631         0.245451885
       900          900.000000         0.077907923       277.981321073      -129.735329228      -129.627094917         0.267817627
       910          910.000000         0.084806781       302.596965926      -129.743883417      -129.628163078         0.286987877
       920          920.000000         0.089768078       320.299245843      -129.748709194      -129.627571388         0.272571299
       930          930.000000         0.075875971       270.731163981      -129.733686301      -129.625945151         0.248522171
       940          940.000000         0.077940811       278.098668260      -129.736277700      -129.626211822         0.260844005
       950          950.000000         0.073032945       260.587032904      -129.730812907      -129.625556022         0.244716403
       960          960.000000         0.070314202       250.886352878      -129.726902871      -129.624404025         0.267247535
       970          970.000000         0.075551231       269.572466996      -129.731822800      -129.624296273         0.276880532
       980          980.000000         0.084006109       299.740107714      -129.739440759      -129.623851880         0.262102990
       990          990.000000         0.074506484       265.844732450      -129.729359901      -129.623681514         0.233571907
      1000         1000.000000         0.080798418       288.294825364      -129.736038512      -129.624586763         0.276187108
      1010         1010.000000         0.084634009       301.980501320      -129.737849401      -129.623149945         0.119633528
      1020         1020.000000         0.064662059       230.719082267      -129.717643573      -129.623539927         0.241230090
      1030         1030.000000         0.078411398       279.777759509      -129.731657618      -129.624559849         0.228238871
      1040         1040.000000         0.072641142       259.189050244      -129.724950215      -129.624416167         0.275995763
      1050         1050.000000         0.072082952       257.197388770      -129.722822277      -129.624012666         0.259099892
      1060         1060.000000         0.085742748       305.936566805      -129.734836977      -129.623588918         0.267833729
      1070         1070.000000         0.076421490       272.677616988      -129.723996618      -129.623438880         0.242682001
      1080         1080.000000         0.089585920       319.649292713      -129.736125390      -129.623981467         0.234712963
      1090         1090.000000         0.101370288       361.696802571      -129.745777881      -129.623619134         0.278232506
      1100         1100.000000         0.076067017       271.412829284      -129.718846294      -129.623414161         0.254021006
      1110         1110.000000         0.077625874       276.974950607      -129.719423800      -129.623682064         0.266301885
      1120         1120.000000         0.098984895       353.185542611      -129.739642137      -129.624058217         0.244180604
      1130         1130.000000         0.093539984       333.757688508      -129.734238816      -129.625396287         0.273497638
      1140         1140.000000         0.072412928       258.374765906      -129.712150645      -129.625517256         0.254090312
      1150         1150.000000         0.097922676       349.395464682      -129.736013277      -129.625057707         0.257436885
      1160         1160.000000         0.087946104       313.798306170      -129.724589481      -129.624751096         0.235215141
      1170         1170.000000         0.084456265       301.346297078      -129.719288279      -129.624141489         0.288931423
      1180         1180.000000         0.093580881       333.903613556      -129.727567963      -129.624532272         0.277748371
      1190         1190.000000         0.091706207       327.214633871      -129.724487466      -129.624576630         0.266407544
      1200         1200.000000         0.090589745       323.231016054      -129.750720474      -129.653317910         0.262501004
      1210         1210.000000         0.083004222       296.165299430      -129.742188436      -129.653622251         0.271720743
      1220         1220.000000         0.077078523       275.021958441      -129.735178804      -129.653872217         0.267650261
      1230         1230.000000         0.089856849       320.615986816      -129.744931888      -129.652926969         0.262111885
      1240         1240.000000         0.075237984       268.454780141      -129.727861420      -129.652963502         0.281028692
      1250         1250.000000         0.088819043       316.913017931      -129.739104736      -129.653839063         0.253765293
      1260         1260.000000         0.076965669       274.619287297      -129.721829556      -129.652538652         0.249470811
      1270         1270.000000         0.081563472       291.024594456      -129.722514547      -129.653096388         0.276769318
      1280         1280.000000         0.095380509       340.324822190      -129.732692758      -129.653922021         0.267306663
      1290         1290.000000         0.085212332       304.044000877      -129.720042621      -129.655757535         0.284168753
      1300         1300.000000         0.095817572       341.884292928      -129.727686689      -129.656275127         0.264947167
      1310         1310.000000         0.102999892       367.511353323      -129.731823931      -129.655827250         0.265639382
      1320         1320.000000         0.086236978       307.700014613      -129.713140352      -129.655582484         0.233985820
      1330         1330.000000         0.086816901       309.769222583      -129.743661481      -129.686806365         0.290071509
      1340         1340.000000         0.077876062       277.867637651      -129.732230524      -129.685122777         0.254184601
      1350         1350.000000         0.073195263       261.166197737      -129.726161455      -129.684473201         0.253882547
      1360         1360.000000         0.086817084       309.769876785      -129.739289959      -129.684881925         0.237133130
      1370         1370.000000         0.079308644       282.979197873      -129.730399946      -129.684330861         0.246990461
      1380         1380.000000         0.076995470       274.725621932      -129.727313681      -129.684339466         0.235828884
      1390         1390.000000         0.080571665       287.485753738      -129.729834470      -129.684255636         0.259922274
      1400         1400.000000         0.070951571       253.160536751      -129.719463210      -129.684290405         0.236673296
      1410         1410.000000         0.079093617       282.211967032      -129.726353252      -129.684060579         0.260695631
      1420         1420.000000         0.068076816       242.903193836      -129.714054877      -129.683876781         0.253289410
      1430         1430.000000         0.073869838       263.573130979      -129.718900862      -129.684142864         0.260153783
      1440         1440.000000         0.091046515       324.860806474      -129.735516540      -129.685247595         0.240462971
      1450         1450.000000         0.084626147       301.952448459      -129.727465408      -129.685230440         0.311900646
      1460         1460.000000         0.086191656       307.538304647      -129.726460816      -129.684257896         0.238295624
      1470         1470.000000         0.089372832       318.888976701      -129.728227826      -129.684407633         0.262719692
      1480         1480.000000         0.085670516       305.678837416      -129.722766274      -129.684086267         0.238768828
      1490         1490.000000         0.089165781       318.150205001      -129.725138641      -129.684309591         0.235348785
      1500         1500.000000         0.100282856       357.816761595      -129.736429584      -129.685679331         0.239058588
      1510         1510.000000         0.072993044       260.444664352      -129.738554420      -129.716045034         0.265798955
      1520         1520.000000         0.086400444       308.283275082      -129.750676910      -129.715703030         0.287783799
      1530         1530.000000         0.070188164       250.436641661      -129.733003808      -129.715191237         0.243168267
      1540         1540.000000         0.079511794       283.704052246      -129.740959709      -129.714898098         0.279605939
      1550         1550.000000         0.081691921       291.482911203      -129.741891593      -129.714837685         0.258347537
      1560         1560.000000         0.078239963       279.166063725      -129.737678398      -129.715365376         0.267755622
      1570         1570.000000         0.079303697       282.961548661      -129.736205266      -129.714192893         0.233966373
      1580         1580.000000         0.083453669       297.768958580      -129.740140976      -129.715466662         0.323813635
      1590         1590.000000         0.086898857       310.061649830      -129.740318153      -129.713796167         0.234152149
      1600         1600.000000         0.083815479       299.059925522      -129.735152135      -129.713368469         0.262702183
      1610         1610.000000         0.086976361       310.338189031      -129.736677939      -129.713324604         0.235968894
      1620         1620.000000         0.082565744       294.600776258      -129.729975176      -129.712505632         0.257324313
      1630         1630.000000         0.079092305       282.207284326      -129.725284202      -129.712747778         0.268054961
      1640         1640.000000         0.091537520       326.612748128      -129.736599726      -129.712963915         0.254910997
      1650         1650.000000         0.078006499       278.333047382      -129.721911411      -129.713010788         0.231144488
      1660         1660.000000         0.091454798       326.317590565      -129.736134137      -129.714946366         0.259278349
      1670         1670.000000         0.081703243       291.523308434      -129.726747891      -129.716253560         0.233431347
      1680         1680.000000         0.085797381       306.131501031      -129.729406189      -129.715735673         0.277181664
      1690         1690.000000         0.087261666       311.356179350      -129.729924410      -129.715695975         0.258989767
      1700         1700.000000         0.074798606       266.887045611      -129.713649132      -129.712634897         0.269768805
      1710         1710.000000         0.088291081       315.029209637      -129.725130337      -129.711426761         0.253686477
      1720         1720.000000         0.086749254       309.527855556      -129.722134960      -129.710706546         0.258619054
      1730         1730.000000         0.082908806       295.824847673      -129.717427748      -129.710492323         0.278170310
      1740         1740.000000         0.083548659       298.107893018      -129.717725176      -129.710771302         0.252076827
      1750         1750.000000         0.082580571       294.653681437      -129.716224335      -129.710933034         0.251049070
      1760         1760.000000         0.102317328       365.075910632      -129.734653713      -129.710402145         0.276878795
      1770         1770.000000         0.087742766       313.072779519      -129.719063006      -129.709927334         0.262257108
      1780         1780.000000         0.082526289       294.459997557      -129.713494092      -129.709973607         0.258918143
      1790         1790.000000         0.091033542       324.814517182      -129.722687151      -129.711026488         0.256038291
      1800         1800.000000         0.096134997       343.016889685      -129.727366824      -129.710877977         0.302981619
      1810         1810.000000         0.091184068       325.351603758      -129.723011642      -129.711489737         0.284643719
      1820         1820.000000         0.097763283       348.826736935      -129.728187048      -129.709919166         0.134141453
      1830         1830.000000         0.104544175       373.021469558      -129.735758962      -129.710208865         0.266278957
      1840         1840.000000         0.101624272       362.603035000      -129.733532990      -129.710010697         0.117205834
      1850         1850.000000         0.083872441       299.263169352      -129.715935181      -129.709130862         0.255254176
      1860         1860.000000         0.091464879       326.353560196      -129.725713512      -129.710282228         0.259117529
      1870         1870.000000         0.088523931       315.860034045      -129.725250614      -129.711401066         0.297352637
      1880         1880.000000         0.086308958       307.956843703      -129.725726289      -129.712669209         0.240601666
      1890         1890.000000         0.081994281       292.561752518      -129.723731989      -129.713437595         0.238574970
      1900         1900.000000         0.079882752       285.027659311      -129.722411263      -129.712409286         0.243891452
      1910         1910.000000         0.078381801       279.672154946      -129.722730372      -129.712292862         0.245306858
      1920         1920.000000         0.079812399       284.776635942      -129.727723835      -129.713752629         0.246794504
      1930         1930.000000         0.075201874       268.325934164      -129.724384964      -129.712616475         0.259573236
      1940         1940.000000         0.074124987       264.483520411      -129.726664082      -129.713302532         0.255164513
      1950         1950.000000         0.066827074       238.444018602      -129.721638114      -129.712650245         0.268177415
      1960         1960.000000         0.086037091       306.986803807      -129.742794050      -129.711543373         0.246658493
      1970         1970.000000         0.078350844       279.561698498      -129.738053210      -129.711016396         0.275279761
      1980         1980.000000         0.076888647       274.344466687      -129.740077093      -129.711281526         0.234753420
      1990         1990.000000         0.060778332       216.861653040      -129.727607067      -129.712372397         0.240309051
      2000         2000.000000         0.074574832       266.088603061      -129.745829128      -129.714941608         0.279142999
      2010         2010.000000         0.068406375       244.079083480      -129.739454743      -129.713329013         0.261409136
      2020         2020.000000         0.057659869       205.734743450      -129.729234709      -129.712988112         0.268737265
      2030         2030.000000         0.063040085       224.931757257      -129.735127222      -129.713197289         0.227345391
      2040         2040.000000         0.067996722       242.617410342      -129.739806104      -129.712939831         0.277676590
      2050         2050.000000         0.062109123       221.610017476      -129.733443140      -129.712700961         0.242735537
      2060         2060.000000         0.062959218       224.643219847      -129.733548718      -129.712403542         0.255496095
      2070         2070.000000         0.075118167       268.027261255      -129.744335305      -129.711703199         0.260313369
      2080         2080.000000         0.069664149       248.566917709      -129.739055210      -129.712668124         0.248920106
      2090         2090.000000         0.072905036       260.130646353      -129.741359650      -129.712576133         0.312757105
      2100         2100.000000         0.076450216       272.780115200      -129.744780594      -129.713442291         0.245889903
      2110         2110.000000         0.067735228       241.684380473      -129.735634664      -129.714051834         0.277443263
      2120         2120.000000         0.084200393       300.433326927      -129.750004483      -129.713237610         0.287973387
      2130         2130.000000         0.091331740       325.878507248      -129.754868301      -129.712309530         0.263562953
      2140         2140.000000         0.079204108       282.606207320      -129.740734237      -129.711561334         0.292046353
      2150         2150.000000         0.084429736       301.251640157      -129.744653721      -129.711393378         0.275496215
      2160         2160.000000         0.071149631       253.867229033      -129.730601508      -129.711737094         0.265229007
      2170         2170.000000         0.085862154       306.362615991      -129.744121244      -129.711706624         0.306130602
      2180         2180.000000         0.079170240       282.485365014      -129.735664133      -129.711149664         0.260920115
      2190         2190.000000         0.081994652       292.563076476      -129.738398351      -129.712117019         0.255402131
      2200         2200.000000         0.084787502       302.528177224      -129.739471558      -129.711455597         0.274265746
      2210         2210.000000         0.089597937       319.692168780      -129.743641852      -129.711897082         0.265151931
      2220         2220.000000         0.087011366       310.463090697      -129.739666214      -129.711468298         0.280548998
      2230         2230.000000         0.072467156       258.568254469      -129.723427767      -129.710701625         0.263190801
      2240         2240.000000         0.093551031       333.797106845      -129.743282830      -129.710617817         0.242660561
      2250         2250.000000         0.100895549       360.002898477      -129.750013242      -129.711091516         0.240193437
      2260         2260.000000         0.079967662       285.330623303      -129.728004873      -129.710827779         0.142162165
      2270         2270.000000         0.089012105       317.601878794      -129.736274142      -129.710820248         0.261731306