#     Step Nr.          Time[fs]        Kin.[a.u.]          Temp[K]            Pot.[a.u.]        Cons Qty[a.u.]        UsedTime[s]
         0            0.000000         0.084078947       300.000000000      -129.716131242      -129.631577273         0.000000000
        10           10.000000         0.101629448       362.621505803      -129.734930328      -129.631649442         0.381804527
        20           20.000000         0.111216405       396.828488982      -129.745963643      -129.631689132         0.455356228
        30           30.000000         0.078917451       281.583394488      -129.748662430      -129.665170458         0.458516051
        40           40.000000         0.078593783       280.428522847      -129.749920706      -129.665576502         0.475841843
        50           50.000000         0.083162344       296.729491135      -129.755481770      -129.665366943         0.455725522
        60           60.000000         0.085818811       306.207965900      -129.759827974      -129.665811884         0.377399598
        70           70.000000         0.066156209       236.050321978      -129.741460740      -129.666058757         0.537691328
        80           80.000000         0.083574679       298.200732035      -129.759636357      -129.665899383         0.452423202
        90           90.000000         0.074328277       265.208874842      -129.750894821      -129.665613131         0.452661958
       100          100.000000         0.075755328       270.300700149      -129.752879915      -129.665423468         0.453583111
       110          110.000000         0.071750343       256.010612600      -129.749330907      -129.665308165         0.553589558
       120          120.000000         0.074231125       264.862230691      -129.752736735      -129.665791454         0.467100096
       130          130.000000         0.090699300       323.621914177      -129.770006082      -129.666289547         0.485201469
       140          140.000000         0.070444126       251.349934560      -129.750252017      -129.666438927         0.511872023
       150          150.000000         0.078464531       279.967342221      -129.758886420      -129.666864225         0.381134475
       160          160.000000         0.080285368       286.464224716      -129.760313128      -129.666397714         0.531022811
       170          170.000000         0.071488810       255.077442836      -129.751825841      -129.666704448         0.509760058
       180          180.000000         0.083348465       297.393583626      -129.764195211      -129.667378316         0.510022765
       190          190.000000         0.065656966       234.268986694      -129.746789266      -129.667983141         0.541415276
       200          200.000000         0.084626321       301.953071546      -129.766671525      -129.669536713         0.454137426
       210          210.000000         0.076105506       271.550160543      -129.759123259      -129.671370868         0.453793793
       220          220.000000         0.076349129       272.419429189      -129.759113229      -129.672470520         0.379441919
       230          230.000000         0.075058397       267.813998726      -129.755946222      -129.672291511         0.527358030
       240          240.000000         0.077949013       278.127931986      -129.754565745      -129.670465816         0.511972894
       250          250.000000         0.088559580       315.987233052      -129.760360133      -129.668869156         0.511069607
       260          260.000000         0.074903278       267.260523972      -129.743121353      -129.668811323         0.462469249
       270          270.000000         0.085085841       303.592671955      -129.749990252      -129.668885209         0.452177921
       280          280.000000         0.094008384       335.428976070      -129.756004944      -129.669441397         0.458233068
       290          290.000000         0.093734387       334.451335438      -129.752290855      -129.669275653         0.443232187
       300          300.000000         0.095877508       342.098151938      -129.750845321      -129.668034624         0.515981386
       310          310.000000         0.097402481       347.539368245      -129.749579829      -129.667417758         0.450929937
       320          320.000000         0.103661220       369.871019024      -129.753969133      -129.667063861         0.509775427
       330          330.000000         0.090663715       323.494947186      -129.739353740      -129.666426597         0.524710462
       340          340.000000         0.100796963       359.651135417      -129.748524042      -129.666023988         0.508847020
       350          350.000000         0.092756254       330.961283092      -129.739361283      -129.665125081         0.509646186
       360          360.000000         0.104616568       373.279772188      -129.751860921      -129.665622322         0.510470207
       370          370.000000         0.093955095       335.238836637      -129.742730143      -129.666718482         0.513275596
       380          380.000000         0.084385815       301.094926703      -129.733664958      -129.666476226         0.508301368
       390          390.000000         0.102215143       364.711307115      -129.751133789      -129.665414697         0.455123886
       400          400.000000         0.087595035       312.545665040      -129.736204782      -129.663986898         0.509255685
       410          410.000000         0.098768283       352.412652552      -129.747580343      -129.662947439         0.513541920
       420          420.000000         0.089057365       317.763367463      -129.738616008      -129.662290350         0.452649140
       430          430.000000         0.087050217       310.601712845      -129.767484738      -129.691498849         0.524764620
       440          440.000000         0.069361205       247.485990765      -129.751173532      -129.691410813         0.453688816
       450          450.000000         0.080988420       288.972765737      -129.764348728      -129.691802942         0.497831642
       460          460.000000         0.082006766       292.606300934      -129.766081120      -129.691307886         0.436079369
       470          470.000000         0.076556033       273.157675529      -129.762062815      -129.691639016         0.451565420
       480          480.000000         0.079080461       282.165025727      -129.765324558      -129.691490523         0.508715783
       490          490.000000         0.071073069       253.594049022      -129.757811314      -129.691229553         0.506870754
       500          500.000000         0.077284326       275.756278847      -129.764566043      -129.691226967         0.509862274
       510          510.000000         0.071610337       255.511061522      -129.759252815      -129.691180140         0.513902278
       520          520.000000         0.081910296       292.262090517      -129.769921733      -129.691305327         0.524983828
       530          530.000000         0.072132026       257.372487881      -129.760228382      -129.691234105         0.509007777
       540          540.000000         0.063314174       225.909729386      -129.751709018      -129.691539925         0.511292984
       550          550.000000         0.073415945       261.953605305      -129.761927612      -129.691920490         0.424398051
       560          560.000000         0.067025448       239.151832556      -129.754997635      -129.691882433         0.422268120
       570          570.000000         0.085837168       306.273462515      -129.772212151      -129.691140850         0.378952703
       580          580.000000         0.072456897       258.531651883      -129.757558084      -129.690885367         0.437176312
       590          590.000000         0.069095387       246.537532486      -129.752848249      -129.690771651         0.439166208
       600          600.000000         0.085661753       305.647568364      -129.767940574      -129.690967108         0.483200306
       610          610.000000         0.068990661       246.163859180      -129.749720769      -129.691326616         0.510003103
       620          620.000000         0.074752048       266.720921475      -129.754857468      -129.692867061         0.536787804
       630          630.000000         0.079543207       283.816138744      -129.758503975      -129.694145949         0.423746636
       640          640.000000         0.083644211       298.448827356      -129.759326756      -129.693936077         0.454131045
       650          650.000000         0.088737284       316.621294735      -129.760412882      -129.692547505         0.454331356
       660          660.000000         0.071174189       253.954852972      -129.739913561      -129.692260244         0.508236753
       670          670.000000         0.091175347       325.320485486      -129.758793209      -129.693488485         0.527388130
       680          680.000000         0.083910892       299.400367270      -129.751075675      -129.695279285         0.512362958
       690          690.000000         0.092701005       330.764149897      -129.760043580      -129.697196802         0.377636217
       700          700.000000         0.078339485       279.521168715      -129.745312612      -129.698089071         0.423007048
       710          710.000000         0.091444940       326.282414162      -129.756634230      -129.697458260         0.450216284
       720          720.000000         0.084352867       300.977366688      -129.747233010      -129.696032374         0.505567639
       730          730.000000         0.085656777       305.629816427      -129.746587217      -129.694795736         0.507966541
       740          740.000000         0.096936526       345.876806864      -129.756391873      -129.693879821         0.508557764
       750          750.000000         0.088182515       314.641838941      -129.747033840      -129.693549982         0.510080481
       760          760.000000         0.100609527       358.982348934      -129.759661611      -129.693786971         0.508042102
       770          770.000000         0.089379963       318.914422483      -129.749802765      -129.694922385         0.510226206
       780          780.000000         0.093360133       333.115967762      -129.755556157      -129.696350322         0.507623485
       790          790.000000         0.096486224       344.270093375      -129.759036692      -129.696229923         0.509931005
       800          800.000000         0.081907910       292.253574779      -129.743815877      -129.694940665         0.508169189
       810          810.000000         0.095241398       339.828462806      -129.756565710      -129.693744708         0.506735889
       820          820.000000         0.083962330       299.583901789      -129.745556458      -129.693256829         0.512383986
       830          830.000000         0.086787929       309.665848794      -129.748894322      -129.692920988         0.506434848
       840          840.000000         0.089699717       320.055329070      -129.751924851      -129.692192883         0.420935023
       850          850.000000         0.088073017       314.251139517      -129.751061796      -129.691941349         0.502094411
       860          860.000000         0.089498166       319.336177721      -129.752909092      -129.691428179         0.449986268
       870          870.000000         0.083453027       297.766670819      -129.747526350      -129.691095254         0.482464145
       880          880.000000         0.087930867       313.743937206      -129.751954587      -129.690091548         0.497414189
       890          890.000000         0.090680125       323.553498679      -129.755078824      -129.689278201         0.511366843
       900          900.000000         0.085830092       306.248214488      -129.750914741      -129.688623788         0.493636306
       910          910.000000         0.089814886       320.466258379      -129.756335375      -129.688787179         0.514385952
       920          920.000000         0.086306888       307.949460516      -129.754072348      -129.688470260         0.506662611
       930          930.000000         0.089599257       319.696878858      -129.759296794      -129.688933476         0.506927348
       940          940.000000         0.080123489       285.886627784      -129.751205090      -129.688735199         0.452610299
       950          950.000000         0.087616752       312.623152659      -129.760301791      -129.688753189         0.454308875
       960          960.000000         0.076710117       273.707458265      -129.750788280      -129.688575409         0.506894712
       970          970.000000         0.085424452       304.800859915      -129.761067334      -129.688512359         0.479666698
       980          980.000000         0.076410809       272.639506713      -129.753744063      -129.688645365         0.449843491
       990          990.000000         0.076355543       272.442314159      -129.755149173      -129.688720669         0.508239210
      1000         1000.000000         0.088207700       314.731698404      -129.768133390      -129.688575211         0.420782152
      1010         1010.000000         0.075599405       269.744357117      -129.756276430      -129.688155411         0.439391682
      1020         1020.000000         0.081410648       290.479307832      -129.763152602      -129.688254763         0.449707251
      1030         1030.000000         0.077618594       276.948972226      -129.760445738      -129.688525511         0.495446470
      1040         1040.000000         0.073963713       263.908083738      -129.757850922      -129.688968852         0.441725611
      1050         1050.000000         0.086138569       307.348883341      -129.770167855      -129.688660646         0.494705203
      1060         1060.000000         0.064971573       231.823451355      -129.748957309      -129.688259852         0.508408851
      1070         1070.000000         0.081528503       290.899822930      -129.765654487      -129.688279937         0.378277702
      1080         1080.000000         0.072909212       260.145544903      -129.757303458      -129.688560780         0.481622543
      1090         1090.000000         0.088638417       316.268529590      -129.773386319      -129.689119235         0.378402182
      1100         1100.000000         0.077399690       276.167909778      -129.762888126      -129.690083483         0.495634868
      1110         1110.000000         0.066534331       237.399491156      -129.752047432      -129.690482785         0.380034052
      1120         1120.000000         0.082885611       295.742085719      -129.768739219      -129.691484903         0.421469322
      1130         1130.000000         0.067651179       241.384489985      -129.752997361      -129.691827125         0.508074049
      1140         1140.000000         0.072136921       257.389952484      -129.756599894      -129.691899290         0.421714034
      1150         1150.000000         0.074454912       265.660718036      -129.757222120      -129.691485112         0.378487726
      1160         1160.000000         0.071437972       254.896049172      -129.753048128      -129.691843675         0.494314208
      1170         1170.000000         0.075673874       270.010068207      -129.756391880      -129.692588860         0.499986897
      1180         1180.000000         0.066201775       236.212904562      -129.744837645      -129.692502254         0.509295237
      1190         1190.000000         0.080862458       288.523323030      -129.756345952      -129.691630677         0.441312753
      1200         1200.000000         0.087500937       312.209917542      -129.759549975      -129.690907822         0.508566073
      1210         1210.000000         0.082096451       292.926304638      -129.752235811      -129.691692073         0.511547399
      1220         1220.000000         0.084860224       302.787652803      -129.753981228      -129.692943873         0.440893773
      1230         1230.000000         0.085896092       306.483708685      -129.753970575      -129.694135019         0.421868593
      1240         1240.000000         0.087247475       311.305543946      -129.753239933      -129.693842633         0.509416866
      1250         1250.000000         0.084906733       302.953602982      -129.748107824      -129.692578562         0.501068000
      1260         1260.000000         0.081470728       290.693677872      -129.740992017      -129.690121567         0.508773249
      1270         1270.000000         0.072034900       257.025932968      -129.729742430      -129.689181700         0.516249469
      1280         1280.000000         0.070488839       251.509471273      -129.726645479      -129.688427850         0.482832757
      1290         1290.000000         0.070373213       251.096909690      -129.725285537      -129.687881970         0.424108284
      1300         1300.000000         0.081417083       290.502267994      -129.733885579      -129.686200208         0.509479766
      1310         1310.000000         0.082857269       295.640958661      -129.734012108      -129.685588002         0.509106088
      1320         1320.000000         0.080758560       288.152609604      -129.731261531      -129.685511574         0.484383054
      1330         1330.000000         0.109257270       389.838145840      -129.760018243      -129.686353166         0.429560987
      1340         1340.000000         0.078772839       281.067408321      -129.729753882      -129.686840012         0.464939137
      1350         1350.000000         0.080101767       285.809121268      -129.732422751      -129.688467988         0.428522507
      1360         1360.000000         0.093542802       333.767743148      -129.745940290      -129.688863753         0.484313166
      1370         1370.000000         0.094458461       337.034883263      -129.745631517      -129.687786104         0.377305337
      1380         1380.000000         0.092048793       328.437007563      -129.742169521      -129.686590899         0.480382726
      1390         1390.000000         0.088487119       315.728686758      -129.738465303      -129.686178185         0.508169706
      1400         1400.000000         0.110005547       392.508055864      -129.761210572      -129.686944885         0.422270829
      1410         1410.000000         0.102017690       364.006780612      -129.755133357      -129.687909858         0.377439612
      1420         1420.000000         0.087546370       312.372024076      -129.742826423      -129.688852872         0.512718657
      1430         1430.000000         0.099966722       356.688774978      -129.756616063      -129.688868173         0.377105045
      1440         1440.000000         0.082884788       295.739151035      -129.740795326      -129.688357207         0.508719679
      1450         1450.000000         0.093015580       331.886576065      -129.752822534      -129.688346557         0.423769599
      1460         1460.000000         0.085471425       304.968465762      -129.747059028      -129.688344312         0.449676731
      1470         1470.000000         0.083847181       299.173039999      -129.747304604      -129.688366444         0.508552696
      1480         1480.000000         0.094493919       337.161402192      -129.760814989      -129.689510551         0.480604748
      1490         1490.000000         0.070227871       250.578317369      -129.740534050      -129.691642666         0.421995697
      1500         1500.000000         0.075024626       267.693501410      -129.748605876      -129.693597768         0.507712788
      1510         1510.000000         0.080933584       288.777106753      -129.755114051      -129.692922913         0.510834452
      1520         1520.000000         0.083647171       298.459387760      -129.756462242      -129.690184057         0.507967222
      1530         1530.000000         0.074947762       267.419244821      -129.746420202      -129.687749771         0.484210850
      1540         1540.000000         0.088834178       316.967020678      -129.760582878      -129.686936555         0.513469226
      1550         1550.000000         0.082444492       294.168139401      -129.754828929      -129.686500834         0.376287253
      1560         1560.000000         0.079637570       284.152832020      -129.752783673      -129.686327131         0.449253177
      1570         1570.000000         0.081921483       292.302003831      -129.756036480      -129.686427060         0.446791155
      1580         1580.000000         0.077125693       275.190264738      -129.751692104      -129.686040704         0.507980893
      1590         1590.000000         0.078390272       279.702379963      -129.753099017      -129.685489988         0.508291363
      1600         1600.000000         0.080901147       288.661371351      -129.756096686      -129.685393067         0.448567361
      1610         1610.000000         0.071805043       256.205788535      -129.747589841      -129.685462202         0.519002507
      1620         1620.000000         0.089398769       318.981521662      -129.765924175      -129.685870444         0.377823963
      1630         1630.000000         0.066306031       236.584897810      -129.742750628      -129.685483095         0.450164623
      1640         1640.000000         0.081819705       291.938854587      -129.758343005      -129.685463859         0.376563240
      1650         1650.000000         0.076780841       273.959807158      -129.753360162      -129.685519509         0.508943624
      1660         1660.000000         0.080456032       287.073165200      -129.756857297      -129.685441904         0.508051743
      1670         1670.000000         0.074571089       266.075246438      -129.750765076      -129.685394647         0.450625891
      1680         1680.000000         0.082363642       293.879659898      -129.758620597      -129.685802385         0.509745045
      1690         1690.000000         0.087842953       313.430253355      -129.763419039      -129.685555707         0.450396057
      1700         1700.000000         0.073116277       260.884370009      -129.748448525      -129.685776133         0.453397394
      1710         1710.000000         0.092542705       330.199324473      -129.767891048      -129.686511844         0.436440788
      1720         1720.000000         0.093246920       332.712016138      -129.767848281      -129.686680943         0.509241008
      1730         1730.000000         0.081053794       289.206024569      -129.754563884      -129.686433905         0.522651952
      1740         1740.000000         0.086877031       309.983773778      -129.758654030      -129.685700801         0.449935072
      1750         1750.000000         0.068397053       244.045822378      -129.738674854      -129.685262786         0.507322141
      1760         1760.000000         0.090246692       322.006974852      -129.759481558      -129.685636391         0.509044087
      1770         1770.000000         0.078100234       278.667501472      -129.744913399      -129.684806344         0.448291693
      1780         1780.000000         0.075186092       268.269623134      -129.740144943      -129.684656422         0.459035168
      1790         1790.000000         0.092296136       329.319545916      -129.755175049      -129.684686637         0.449927831
      1800         1800.000000         0.073933756       263.801196150      -129.734634514      -129.684816468         0.511436479
      1810         1810.000000         0.091709522       327.226464404      -129.750592726      -129.685313380         0.505545153
      1820         1820.000000         0.085112865       303.689095847      -129.742181460      -129.686281355         0.507844947
      1830         1830.000000         0.093353020       333.090586656      -129.747905689      -129.686521978         0.508615696
      1840         1840.000000         0.096039726       342.676957643      -129.748169742      -129.686567190         0.511864242
      1850         1850.000000         0.094903185       338.621693323      -129.743971591      -129.685791312         0.516554251
      1860         1860.000000         0.101018754       360.442502737      -129.748559242      -129.685981997         0.422982815
      1870         1870.000000         0.097767095       348.840338644      -129.743300040      -129.685469136         0.450719471
      1880         1880.000000         0.106627377       380.454492472      -129.750556791      -129.684888080         0.510795201
      1890         1890.000000         0.096215582       343.304422983      -129.740354650      -129.685568316         0.455483612
      1900         1900.000000         0.100202312       357.529375717      -129.746696595      -129.687963304         0.508771396
      1910         1910.000000         0.084551528       301.686202727      -129.733153092      -129.689775674         0.493543819
      1920         1920.000000         0.092417060       329.751010779      -129.741873917      -129.690284591         0.507450303
      1930         1930.000000         0.103198687       368.220665536      -129.752620380      -129.689707288         0.448985873
      1940         1940.000000         0.097784283       348.901667803      -129.747618012      -129.689228967         0.421347239
      1950         1950.000000         0.091430888       326.232274773      -129.742407181      -129.689359084         0.421539445
      1960         1960.000000         0.092038141       328.399001128      -129.744700304      -129.689785745         0.508301235
      1970         1970.000000         0.091819374       327.618422283      -129.746170253      -129.689934708         0.480394362
      1980         1980.000000         0.088876664       317.118613522      -129.743578711      -129.688703861         0.423771639
      1990         1990.000000         0.087821160       313.352497548      -129.743383213      -129.687805836         0.528707952
      2000         2000.000000         0.098847109       352.693909424      -129.754997993      -129.686554686         0.447076235
      2010         2010.000000         0.084546305       301.667565590      -129.741744752      -129.685528376         0.512048725
      2020         2020.000000         0.096360636       343.821986576      -129.754835308      -129.684806290         0.449329387
      2030         2030.000000         0.078727128       280.904306668      -129.738576024      -129.684182212         0.507893550
      2040         2040.000000         0.094347767       336.639919207      -129.756304908      -129.684298668         0.480334000
      2050         2050.000000         0.079970051       285.339149845      -129.745229682      -129.685853305         0.511441927
      2060         2060.000000         0.088991980       317.530069084      -129.755280061      -129.685220617         0.510334490
      2070         2070.000000         0.079828285       284.833316373      -129.746811202      -129.684701653         0.509565920
      2080         2080.000000         0.082971554       296.048735823      -129.750247833      -129.684015867         0.493966104
      2090         2090.000000         0.089019614       317.628668320      -129.756923582      -129.683808320         0.376184144
      2100         2100.000000         0.077308093       275.841082586      -129.745759799      -129.683717554         0.508430622
      2110         2110.000000         0.086941860       310.215088864      -129.755805452      -129.683711951         0.420535083
      2120         2120.000000         0.072495808       258.670487269      -129.741488978      -129.683489049         0.413913161
      2130         2130.000000         0.087859089       313.487830171      -129.757880370      -129.684341719         0.460224793
      2140         2140.000000         0.087251528       311.320004262      -129.757728795      -129.684588887         0.436468752
      2150         2150.000000         0.080845043       288.461187651      -129.751273644      -129.684368820         0.510703231
      2160         2160.000000         0.091024649       324.782784320      -129.761666980      -129.684472888         0.452822225
      2170         2170.000000         0.087068291       310.666204209      -129.757853297      -129.684416960         0.508347860
      2180         2180.000000         0.083917731       299.424768407      -129.754874081      -129.684283118         0.505819207
      2190         2190.000000         0.088279643       314.988398447      -129.759109839      -129.683854408         0.449075467
      2200         2200.000000         0.076623196       273.397320319      -129.747594502      -129.683643986         0.508232186
      2210         2210.000000         0.093864817       334.916718353      -129.765385977      -129.683867581         0.449313153
      2220         2220.000000         0.074304876       265.125379796      -129.745755008      -129.683413615         0.477469266
      2230         2230.000000         0.084570205       301.752843056      -129.756117937      -129.683301512         0.421293610
      2240         2240.000000         0.084025648       299.809825214      -129.756353986      -129.683980053         0.508427772
      2250         2250.000000         0.077195675       275.439965867      -129.749751119      -129.684166301         0.496600291
      2260         2260.000000         0.080103316       285.814647532      -129.752201212      -129.683777663         0.376138853
      2270         2270.000000         0.075430444       269.141490475      -129.747152473      -129.683572079         0.451866962