      70
 i =        0, time =        0.000, E =      -129.7161312424
  C         0.0000000000        0.0000000000        0.0000000000
  C         0.0000000000        4.2600000000        0.0000000000
  C         0.0000000000        8.5200000000        0.0000000000
  C         2.4600000000        0.0000000000        0.0000000000
  C         2.4600000000        4.2600000000        0.0000000000
  C         2.4600000000        8.5200000000        0.0000000000
  C         4.9200000000        0.0000000000        0.0000000000
  C         4.9200000000        4.2600000000        0.0000000000
  C         4.9200000000        8.5200000000        0.0000000000
  C         7.3800000000        0.0000000000        0.0000000000
  C         7.3800000000        4.2600000000        0.0000000000
  C         7.3800000000        8.5200000000        0.0000000000
  C         9.8400000000        0.0000000000        0.0000000000
  C         9.8400000000        4.2600000000        0.0000000000
  C         9.8400000000        8.5200000000        0.0000000000
  C         0.0000000000        1.4200000000        0.0000000000
  C         0.0000000000        5.6800000000        0.0000000000
  C         0.0000000000        9.9400000000        0.0000000000
  C         2.4600000000        1.4200000000        0.0000000000
  C         2.4600000000        5.6800000000        0.0000000000
  C         2.4600000000        9.9400000000        0.0000000000
  C         4.9200000000        1.4200000000        0.0000000000
  C         4.9200000000        5.6800000000        0.0000000000
  C         4.9200000000        9.9400000000        0.0000000000
  C         7.3800000000        1.4200000000        0.0000000000
  C         7.3800000000        5.6800000000        0.0000000000
  C         7.3800000000        9.9400000000        0.0000000000
  C         9.8400000000        1.4200000000        0.0000000000
  C         9.8400000000        5.6800000000        0.0000000000
  C         9.8400000000        9.9400000000        0.0000000000
  C         1.2300000000        2.1300000000        0.0000000000
  C         1.2300000000        6.3900000000        0.0000000000
  C         1.2300000000       10.6500000000        0.0000000000
  C         3.6900000000        2.1300000000        0.0000000000
  C         3.6900000000        6.3900000000        0.0000000000
  C         3.6900000000       10.6500000000        0.0000000000
  C         6.1500000000        2.1300000000        0.0000000000
  C         6.1500000000        6.3900000000        0.0000000000
  C         6.1500000000       10.6500000000        0.0000000000
  C         8.6100000000        2.1300000000        0.0000000000
  C         8.6100000000        6.3900000000        0.0000000000
  C         8.6100000000       10.6500000000        0.0000000000
  C        11.0700000000        2.1300000000        0.0000000000
  C        11.0700000000        6.3900000000        0.0000000000
  C        11.0700000000       10.6500000000        0.0000000000
  C         1.2300000000        3.5500000000        0.0000000000
  C         1.2300000000        7.8100000000        0.0000000000
  C         1.2300000000       12.0700000000        0.0000000000
  C         3.6900000000        3.5500000000        0.0000000000
  C         3.6900000000        7.8100000000        0.0000000000
  C         3.6900000000       12.0700000000        0.0000000000
  C         6.1500000000        3.5500000000        0.0000000000
  C         6.1500000000        7.8100000000        0.0000000000
  C         6.1500000000       12.0700000000        0.0000000000
  C         8.6100000000        3.5500000000        0.0000000000
  C         8.6100000000        7.8100000000        0.0000000000
  C         8.6100000000       12.0700000000        0.0000000000
  C        11.0700000000        3.5500000000        0.0000000000
  C        11.0700000000        7.8100000000        0.0000000000
  C        11.0700000000       12.0700000000        0.0000000000
  H         4.9599956501        6.0790001123        4.4987522349
  H         6.7703826667        7.7900809911        2.4045709528
  O         4.6566475947        5.1410293750        4.4533494348
  O         3.8337229151        6.0841587987        2.5535535463
  O         3.5938966465        3.9328980718        2.8988844637
  O         7.0795733313        7.3344881133        3.2215115857
  O         8.8651621862        7.9970138226        1.9218702799
  O         9.2317739533        7.0293410793        3.8959302842
  N         3.9587814746        5.0387877308        3.1631173845
  N         8.5500635376        7.4732019251        2.9884598511
      70
 i =      100, time =      100.000, E =      -129.7528799151
  C         0.0008813152        0.0346960563       -0.0405654280
  C        -0.0197443023        4.2584776116       -0.1319932523
  C         0.0064966160        8.5268659996       -0.0294445280
  C         2.4254462187        0.0180694932        0.0136001274
  C         2.4775326869        4.2468682104       -0.0325596176
  C         2.4307061490        8.5104384724       -0.0651067787
  C         4.9137624859        0.0030873933        0.0437120062
  C         4.9411617485        4.2592489884       -0.2004290017
  C         4.8886479146        8.5384691900       -0.2914465949
  C         7.3854499824        0.0051397082        0.0081315889
  C         7.3915738245        4.3093655241       -0.2592228157
  C         7.3457750651        8.5631045068       -0.3195885062
  C         9.8353545191       -0.0072012681       -0.0317309608
  C         9.8386338149        4.2979131723       -0.1218988788
  C         9.8185095897        8.5089917382       -0.0836028117
  C        -0.0023585446        1.4528367822       -0.0556986058
  C        -0.0103472168        5.6769620702       -0.1276297612
  C        -0.0254025056        9.9455789646       -0.0321356625
  C         2.4571919149        1.4189326998        0.0162834363
  C         2.4212519991        5.6506859888       -0.0645607466
  C         2.4274450890        9.9386712225       -0.0149604235
  C         4.9302590822        1.4113996173        0.0784254046
  C         4.9205514611        5.6914677396       -0.3076328338
  C         4.9099292310        9.9527423212       -0.2182079817
  C         7.3822440612        1.4357687832        0.0400273399
  C         7.3590607125        5.7272190805       -0.3046492830
  C         7.3479484328        9.9730924948       -0.1764541647
  C         9.8521542462        1.4041219650        0.0063775276
  C         9.8154352278        5.6948322858       -0.1285601032
  C         9.8127177639        9.9555480618       -0.0278861078
  C         1.2267965127        2.1469141216       -0.0403722268
  C         1.2038376586        6.3772477750       -0.0765804818
  C         1.2158520128       10.6674180109        0.0110618322
  C         3.7037523990        2.1267261297        0.0442039613
  C         3.6675309003        6.3852810620       -0.2204459853
  C         3.6751160529       10.6815569983       -0.0616704622
  C         6.1430714586        2.1278336720        0.0120757791
  C         6.1399669456        6.4091441247       -0.3313548742
  C         6.1390560066       10.6819484712       -0.1884518908
  C         8.6095263597        2.1384238821       -0.0888531217
  C         8.5865797037        6.4254640913       -0.2074367542
  C         8.5537541966       10.6579817092       -0.0290122533
  C        11.0599153052        2.1373732977       -0.0363836232
  C        11.0599153052        6.3973732977       -0.0363836232
  C        11.0599153052       10.6573732977       -0.0363836232
  C         1.2115834170        3.5459979328       -0.0446948378
  C         1.2059229834        7.8135892373       -0.0429548108
  C         1.2199153052       12.0773732977       -0.0363836232
  C         3.7204429236        3.5639317342       -0.0625159686
  C         3.6614964333        7.7927198341       -0.2239605611
  C         3.6799153052       12.0773732977       -0.0363836232
  C         6.1783240938        3.5457064561       -0.1548456891
  C         6.1396580221        7.8269522490       -0.3566914077
  C         6.1399153052       12.0773732977       -0.0363836232
  C         8.6233535443        3.5636093598       -0.2033894748
  C         8.5650212647        7.8422866170       -0.2224868312
  C         8.5999153052       12.0773732977       -0.0363836232
  C        11.0599153052        3.5573732977       -0.0363836232
  C        11.0599153052        7.8173732977       -0.0363836232
  C        11.0599153052       12.0773732977       -0.0363836232
  H         4.7493595060        5.9193874420        4.4922947082
  H         7.9390894875        7.7752254759        2.4280767926
  O         4.7989999106        4.9535775508        4.3198026318
  O         3.4209131363        5.9666005566        2.8553986423
  O         3.4436206268        3.7553032904        2.9913775213
  O         7.6768019389        7.3801050587        3.2866590711
  O         9.4317682814        8.5403186432        3.9108553025
  O         8.9048045035        6.6013549728        4.7926937352
  N         3.8401261838        4.8657816078        3.3329389782
  N         8.6757766942        7.5209943975        4.0619282141
      70
 i =      200, time =      200.000, E =      -129.7666715254
  C        -0.0373812613        0.0245232728       -0.1845982340
  C        -0.0111522049        4.2917775033       -0.1730070832
  C        -0.0101497254        8.5522720106       -0.2623944783
  C         2.4142024424        0.0377638493       -0.1697192659
  C         2.4449848220        4.2615834747       -0.3696904452
  C         2.4158977103        8.5332157749       -0.2333121897
  C         4.9011062225        0.0465134408       -0.2034660804
  C         4.9174110245        4.2772677133       -0.3554640759
  C         4.8967198214        8.5295014462       -0.2269630533
  C         7.3695216604        0.0261950649       -0.1278916206
  C         7.3679428405        4.2693467596       -0.2526530504
  C         7.3600939832        8.5492074328       -0.0340067174
  C         9.8219553368        0.0132951447       -0.1850294231
  C         9.8314207134        4.2778439823       -0.1251298507
  C         9.8260724489        8.5402284704       -0.0273264077
  C        -0.0532306119        1.4292569025       -0.2245678599
  C        -0.0068130227        5.6904674897       -0.2443367305
  C        -0.0192874939        9.9687290953       -0.1956825868
  C         2.4543384126        1.4645884940       -0.2486534022
  C         2.4377819584        5.6882359564       -0.3789542747
  C         2.4294902842        9.9389972467       -0.1680807860
  C         4.8827497582        1.4504645803       -0.3232719284
  C         4.8647178528        5.7006918975       -0.2579424455
  C         4.9022977512        9.9397319481       -0.2030220854
  C         7.3646495220        1.4287263364       -0.2509966811
  C         7.3374227799        5.6990907754       -0.1445947570
  C         7.3801599102        9.9670141831       -0.0861178923
  C         9.8192551568        1.4300794653       -0.1544675453
  C         9.8025938414        5.6958693592       -0.0978026769
  C         9.8462141158        9.9597103791       -0.1418163402
  C         1.1928113509        2.1350357654       -0.2762035751
  C         1.2154019222        6.3904085978       -0.3535632910
  C         1.2149609281       10.6532296069       -0.1879801674
  C         3.6646020134        2.1817936092       -0.2692686179
  C         3.6444358440        6.4171184654       -0.2547934850
  C         3.6823436356       10.6676759927       -0.1485707719
  C         6.1282211460        2.1277579038       -0.3582253300
  C         6.0934378983        6.4098756683       -0.1929433353
  C         6.1353130227       10.6778121693       -0.1540376600
  C         8.6022539142        2.1388268748       -0.1850483082
  C         8.5943433294        6.4088429094       -0.0282555070
  C         8.6212022522       10.6866982657       -0.1279013857
  C        11.0502096268        2.1483230607       -0.1347783359
  C        11.0502096268        6.4083230607       -0.1347783359
  C        11.0502096268       10.6683230607       -0.1347783359
  C         1.2097367804        3.5642664179       -0.2637396420
  C         1.1930152525        7.8241357580       -0.3080416688
  C         1.2102096268       12.0883230607       -0.1347783359
  C         3.6734888085        3.5510473724       -0.3320600424
  C         3.6648371303        7.8256029883       -0.1904586851
  C         3.6702096268       12.0883230607       -0.1347783359
  C         6.1397851373        3.5720149395       -0.3633989205
  C         6.1288505216        7.8355826312       -0.1625748349
  C         6.1302096268       12.0883230607       -0.1347783359
  C         8.5959837948        3.5398032662       -0.1990294325
  C         8.5898302110        7.8497114520        0.0433865021
  C         8.5902096268       12.0883230607       -0.1347783359
  C        11.0502096268        3.5683230607       -0.1347783359
  C        11.0502096268        7.8283230607       -0.1347783359
  C        11.0502096268       12.0883230607       -0.1347783359
  H         4.9620971296        5.6839666577        4.5448191732
  H         8.9195547193        8.7129998906        3.5956558770
  O         4.9008382575        4.7951496300        4.1659655589
  O         3.0790641662        5.7748724779        3.5162093754
  O         3.3040226836        3.6530824283        3.1535305304
  O         8.9097494221        7.7310056224        3.7168599155
  O         9.2419751952        8.5201131153        5.6739974901
  O         8.5442433294        6.3589779389        5.4021819816
  N         3.7223581626        4.7206946885        3.5903975859
  N         8.8882248440        7.5875256507        4.9327873504
      70
 i =      300, time =      300.000, E =      -129.7508453206
  C        -0.0386572275        0.0193757020       -0.3546770140
  C        -0.0486093974        4.2922851034       -0.3496673742
  C        -0.0112388378        8.5477457513       -0.3346731831
  C         2.4137707443        0.0277887847       -0.3296990877
  C         2.4067372943        4.3072622003       -0.2093573153
  C         2.4528555216        8.5641142294       -0.2304858203
  C         4.8873002452        0.0234307076       -0.3640946646
  C         4.8768547215        4.3098541979       -0.2614984093
  C         4.9129330883        8.5624561341       -0.1112026568
  C         7.3661756670        0.0060675215       -0.3171320414
  C         7.3774432314        4.2613526919       -0.2705143135
  C         7.3298957146        8.5504740027       -0.3067026740
  C         9.7990262732        0.0259885715       -0.2592149297
  C         9.8073913946        4.2823939861       -0.2408260162
  C         9.8013036150        8.5389911074       -0.3320851846
  C        -0.0192182002        1.4510253605       -0.3502521323
  C        -0.0457636331        5.7064639251       -0.3489350451
  C        -0.0191303505        9.9589992356       -0.3060486871
  C         2.4030130911        1.4578212891       -0.3751381560
  C         2.4086630285        5.7240204913       -0.1830529058
  C         2.4543447878        9.9861902655       -0.2079467041
  C         4.8410767078        1.4334487383       -0.3713611640
  C         4.8835950675        5.7260394533       -0.2511371500
  C         4.9196172351        9.9811789310       -0.2565828758
  C         7.3336800011        1.4268778105       -0.2541054238
  C         7.3656811587        5.6813516805       -0.2444336262
  C         7.3577219572        9.9529615598       -0.4327727713
  C         9.7940221481        1.4519431571       -0.2432788793
  C         9.8194894258        5.6869720233       -0.2274514075
  C         9.8421709029        9.9789088895       -0.3366480468
  C         1.1641318034        2.1827960446       -0.3410221419
  C         1.1845809845        6.4341480347       -0.2257125858
  C         1.2118971583       10.6810742249       -0.2378210895
  C         3.6315148096        2.1693521961       -0.4120802162
  C         3.6538114979        6.4324960006       -0.1812165668
  C         3.6958482824       10.6827926392       -0.2470069890
  C         6.0828418726        2.1560185714       -0.2452603631
  C         6.1246782029        6.4145260890       -0.1949905727
  C         6.1401985699       10.6832396625       -0.3715954704
  C         8.5507724693        2.1147715336       -0.2230962609
  C         8.5951256462        6.3812094859       -0.2728063115
  C         8.6102042198       10.6841486879       -0.4090605001
  C        11.0387575594        2.1587164390       -0.3326242440
  C        11.0387575594        6.4187164390       -0.3326242440
  C        11.0387575594       10.6787164390       -0.3326242440
  C         1.1787490992        3.6149989129       -0.3028964755
  C         1.2202913872        7.8321559938       -0.2857215317
  C         1.1987575594       12.0987164390       -0.3326242440
  C         3.6286672811        3.5839280369       -0.2730017171
  C         3.6625520133        7.8691202848       -0.1679458220
  C         3.6587575594       12.0987164390       -0.3326242440
  C         6.1062835241        3.5728833479       -0.2139147801
  C         6.1312343089        7.8425867326       -0.1448271599
  C         6.1187575594       12.0987164390       -0.3326242440
  C         8.5794964962        3.5482023106       -0.2346187352
  C         8.5782201281        7.8046977045       -0.3237194394
  C         8.5787575594       12.0987164390       -0.3326242440
  C        11.0387575594        3.5787164390       -0.3326242440
  C        11.0387575594        7.8387164390       -0.3326242440
  C        11.0387575594       12.0987164390       -0.3326242440
  H         4.9599190403        5.6059129850        4.2433888440
  H        10.8441502426        8.2487734034        5.8500215012
  O         4.8676659710        4.6865638287        3.9073033797
  O         2.8470569823        5.4959132231        4.1819191771
  O         3.1046758254        3.5112228441        3.2051288982
  O        10.1735342322        7.9776523796        5.1816706589
  O         8.8915132704        8.2642975145        6.9105823569
  O         8.3616383065        6.6621376918        5.3621996185
  N         3.6710152358        4.5937495044        3.8074391414
  N         9.0561255700        7.5319202515        5.7962862183
      70
 i =      400, time =      400.000, E =      -129.7362047823
  C        -0.0504027664        0.0278378933       -0.4354469617
  C        -0.0739540084        4.2900116028       -0.2740648297
  C        -0.0477048992        8.5759509071       -0.4698167153
  C         2.4167152023        0.0397158438       -0.4607057919
  C         2.4365603370        4.2935218425       -0.1076854539
  C         2.4140848368        8.5536003807       -0.4899053723
  C         4.9103547813        0.0368001273       -0.3456553292
  C         4.8704979951        4.2803153211       -0.1627062360
  C         4.8570604729        8.5710458196       -0.4047029940
  C         7.3303015578        0.0511253315       -0.4510797397
  C         7.3544198773        4.3033518137       -0.4229232598
  C         7.3372804882        8.5396398035       -0.4541055875
  C         9.7982655921        0.0380093284       -0.4869566742
  C         9.7888066870        4.3168117967       -0.5875784161
  C         9.7753022667        8.5764252597       -0.5044635311
  C        -0.0551232694        1.4655036699       -0.3634108505
  C        -0.0386814334        5.7155305352       -0.3496115011
  C        -0.0236625203        9.9861725850       -0.5020930106
  C         2.3845353553        1.4386907257       -0.3166549573
  C         2.4277215629        5.7093284056       -0.2361195506
  C         2.4321343998        9.9848689447       -0.5093285243
  C         4.8763852912        1.4447982814       -0.2042393025
  C         4.9051105272        5.6986923744       -0.2323255043
  C         4.8892303897        9.9895214584       -0.3662969743
  C         7.3388635732        1.4805217050       -0.3645725219
  C         7.3165853208        5.7083592221       -0.4301353830
  C         7.3560028172        9.9443459324       -0.4816241841
  C         9.8094693684        1.4544821744       -0.4847329887
  C         9.7732205009        5.7423712710       -0.5966045154
  C         9.7677649460        9.9926551320       -0.5222813858
  C         1.1474705594        2.1678829552       -0.2278599150
  C         1.1840608579        6.4288861908       -0.3962457365
  C         1.2010888216       10.7014681518       -0.4968809458
  C         3.6055892268        2.1639467693       -0.1549652580
  C         3.6710446550        6.4152417135       -0.2542882900
  C         3.6677964919       10.6926457020       -0.4390290489
  C         6.1050936963        2.2118057926       -0.3080814596
  C         6.1066526614        6.4204477300       -0.3484581124
  C         6.1370315307       10.6640422231       -0.4460416415
  C         8.5757406504        2.1400680795       -0.4028976586
  C         8.5385401151        6.4437839802       -0.4852220221
  C         8.5523043785       10.6828069525       -0.5520305148
  C        11.0280608346        2.1707935878       -0.4942513043
  C        11.0280608346        6.4307935878       -0.4942513043
  C        11.0280608346       10.6907935878       -0.4942513043
  C         1.1912237144        3.5964438335       -0.1244661967
  C         1.1806003602        7.8322433765       -0.4398734319
  C         1.1880608346       12.1107935878       -0.4942513043
  C         3.6455114516        3.5904310134       -0.0561829033
  C         3.6549022926        7.8525944757       -0.3515379559
  C         3.6480608346       12.1107935878       -0.4942513043
  C         6.0960408561        3.6075386500       -0.3637408945
  C         6.0847499485        7.8399774431       -0.4184834584
  C         6.1080608346       12.1107935878       -0.4942513043
  C         8.5712501730        3.5729834891       -0.4651020977
  C         8.5639391689        7.8327156266       -0.4664960528
  C         8.5680608346       12.1107935878       -0.4942513043
  C        11.0280608346        3.5907935878       -0.4942513043
  C        11.0280608346        7.8507935878       -0.4942513043
  C        11.0280608346       12.1107935878       -0.4942513043
  H         4.9934561327        5.3422659956        4.2842478984
  H        10.4370227691        7.1562466839        8.0449522247
  O         4.6264439775        4.6808360548        3.7034334142
  O         2.8412374046        5.0268889176        4.9395889116
  O         2.8879558648        3.4447279935        3.4066888037
  O        10.6543693513        7.6308178045        7.2336780320
  O         8.5091759554        7.7196488930        7.7372574170
  O         9.1559635606        7.7503448248        5.6573891699
  N         3.5595378869        4.4124200369        4.0138450418
  N         9.3448316016        7.6628162875        6.8017279528
      70
 i =      500, time =      500.000, E =      -129.7645660434
  C        -0.0570855262        0.0357303537       -0.5744619236
  C        -0.0270627724        4.2791534830       -0.5294248192
  C        -0.0409110425        8.5546439464       -0.4705946046
  C         2.4043825875        0.0460720893       -0.5721247796
  C         2.4134734886        4.2785173738       -0.6286263393
  C         2.3936912799        8.5801032641       -0.5326317182
  C         4.8781495663        0.0619304486       -0.6111086823
  C         4.8949838798        4.2794575235       -0.4797218098
  C         4.8114656988        8.5820541429       -0.5173131837
  C         7.3161335289        0.0496720138       -0.4913618358
  C         7.3415102490        4.3184113110       -0.4625829138
  C         7.2719621271        8.5691364698       -0.4783427639
  C         9.7623099886        0.0661480924       -0.4648786623
  C         9.8334800751        4.3207973622       -0.4725923839
  C         9.7735261995        8.5566533908       -0.5297385129
  C        -0.0379896928        1.4639607580       -0.6051901687
  C        -0.0699300527        5.6927351629       -0.5257778171
  C        -0.0573213778        9.9745631953       -0.4618610255
  C         2.3950865221        1.4488319853       -0.7256676927
  C         2.4258189113        5.7108319440       -0.5901509899
  C         2.3889775102        9.9893858781       -0.4742447076
  C         4.8903923669        1.4838629251       -0.6111367216
  C         4.8593571289        5.7214398575       -0.4649028714
  C         4.8464407882       10.0068598538       -0.5194359322
  C         7.3338008994        1.4685786370       -0.4741921157
  C         7.3411991777        5.7257701020       -0.3790218197
  C         7.3291088023       10.0098882664       -0.5147794394
  C         9.7722898504        1.4920319804       -0.4864862234
  C         9.7893472566        5.7322866615       -0.4139663714
  C         9.7851124372        9.9804255895       -0.5397837246
  C         1.1856269913        2.1638624665       -0.6813672830
  C         1.1786622162        6.4142221940       -0.5477896661
  C         1.1835076495       10.6894807323       -0.3796406958
  C         3.6300498694        2.1748792340       -0.7016436426
  C         3.6293489424        6.4386370694       -0.5442873254
  C         3.6179015365       10.6827155132       -0.4708447626
  C         6.1048598904        2.1972125690       -0.4839884375
  C         6.0911077601        6.4255651235       -0.3946309899
  C         6.0937297319       10.7037676187       -0.4801874389
  C         8.5668824572        2.2298201975       -0.5333050060
  C         8.5680800670        6.4643601871       -0.3999800305
  C         8.5389299567       10.7076784042       -0.5483136836
  C        11.0141300868        2.1798438943       -0.5233750451
  C        11.0141300868        6.4398438943       -0.5233750451
  C        11.0141300868       10.6998438943       -0.5233750451
  C         1.1922927358        3.5896533985       -0.6392150568
  C         1.1936782133        7.8339640051       -0.5135308305
  C         1.1741300868       12.1198438943       -0.5233750451
  C         3.6531758806        3.5666694664       -0.6253764752
  C         3.6166594127        7.8611116560       -0.5685551054
  C         3.6341300868       12.1198438943       -0.5233750451
  C         6.1217177782        3.6218896775       -0.4441207890
  C         6.0561785251        7.8480678921       -0.4246017216
  C         6.0941300868       12.1198438943       -0.5233750451
  C         8.6022021576        3.6229745005       -0.5287033980
  C         8.5152564642        7.8726196042       -0.4975491103
  C         8.5541300868       12.1198438943       -0.5233750451
  C        11.0141300868        3.5998438943       -0.5233750451
  C        11.0141300868        7.8598438943       -0.5233750451
  C        11.0141300868       12.1198438943       -0.5233750451
  H         4.7186930492        5.3534292596        4.4259957949
  H        10.0484159684        6.7923077592        9.4089654373
  O         4.3365032368        4.7524943645        3.7399958681
  O         3.0496281017        4.5232431274        5.5313563102
  O         2.6656685841        3.4059895425        3.7226549543
  O        10.4856156612        7.2535068047        8.6828376403
  O         8.4504666876        7.3227596669        7.8655286596
  O        10.0574770151        8.7073326519        7.0779731149
  N         3.3549899723        4.2380744135        4.3493186561
  N         9.6832701970        7.7126718251        7.8981581935
      70
 i =      600, time =      600.000, E =      -129.7679405736
  C        -0.0888922572        0.0491438387       -0.5693813785
  C        -0.0429277545        4.3187961177       -0.5720203013
  C        -0.0745952111        8.5794688628       -0.5884690809
  C         2.3877307911        0.0436212330       -0.6153766275
  C         2.4096800422        4.3108720380       -0.7082976590
  C         2.3791165608        8.5680100702       -0.7195741808
  C         4.8638793164        0.0488089060       -0.5856531244
  C         4.8676496811        4.3532234221       -0.7780365033
  C         4.8575760448        8.5830244678       -0.7067049414
  C         7.2924261377        0.0694745187       -0.5905540879
  C         7.3213032778        4.3125670690       -0.7546180456
  C         7.2874193664        8.5594087557       -0.4647369091
  C         9.7700879033        0.0476512549       -0.6408373712
  C         9.8084871264        4.3503762066       -0.6816315880
  C         9.7550200380        8.5805309310       -0.5163944639
  C        -0.0902152929        1.4664248541       -0.5789266806
  C        -0.0475718193        5.7364712080       -0.6082451421
  C        -0.0817185588       10.0055699397       -0.5173698483
  C         2.3843469271        1.4750454951       -0.6905081538
  C         2.4265058744        5.7266517872       -0.8038628598
  C         2.3864023836        9.9720767394       -0.5630486212
  C         4.8307180194        1.4739779628       -0.6907464113
  C         4.8645720729        5.7686414856       -0.8246755796
  C         4.8603532938        9.9968174976       -0.6064129796
  C         7.3089952252        1.4954170165       -0.7085568117
  C         7.2940954213        5.7439621345       -0.6760486804
  C         7.3237577678        9.9758260942       -0.5162777553
  C         9.7950356297        1.4753020200       -0.6721883212
  C         9.8024641337        5.7444795626       -0.6621851697
  C         9.7702112339        9.9831875858       -0.5543159624
  C         1.1305868882        2.1717359147       -0.6468222540
  C         1.1888086274        6.4327836914       -0.6781576412
  C         1.1840852477       10.7167075389       -0.5270681564
  C         3.6125458822        2.1951540618       -0.7099799553