data_lammps=/home/jovyan/MMM_2024/Exercise_2/data_lammps_cu (written by ASE)

84       atoms
1  atom types
0.0      20.0  xlo xhi
0.0      20.0  ylo yhi
0.0      20.0  zlo zhi


Atoms
    
   1 1      4.9073687       5.589652      11.998133 
   2 1      3.6342109       7.794826      11.998133 
   3 1      4.9073687           10.0      11.998133 
   4 1      3.6342109      12.205174      11.998133 
   5 1      4.9073687      14.410348      11.998133 
   6 1      7.4536844       5.589652      11.998133 
   7 1      6.1805265       7.794826      11.998133 
   8 1      7.4536844           10.0      11.998133 
   9 1      6.1805265      12.205174      11.998133 
  10 1      7.4536844      14.410348      11.998133 
  11 1      8.7268422      3.3844779      11.998133 
  12 1           10.0       5.589652      11.998133 
  13 1      8.7268422       7.794826      11.998133 
  14 1           10.0           10.0      11.998133 
  15 1      8.7268422      12.205174      11.998133 
  16 1           10.0      14.410348      11.998133 
  17 1      8.7268422      16.615522      11.998133 
  18 1      11.273158      3.3844779      11.998133 
  19 1      12.546316       5.589652      11.998133 
  20 1      11.273158       7.794826      11.998133 
  21 1      12.546316           10.0      11.998133 
  22 1      11.273158      12.205174      11.998133 
  23 1      12.546316      14.410348      11.998133 
  24 1      11.273158      16.615522      11.998133 
  25 1      15.092631       5.589652      11.998133 
  26 1      13.819473       7.794826      11.998133 
  27 1      15.092631           10.0      11.998133 
  28 1      13.819473      12.205174      11.998133 
  29 1      15.092631      14.410348      11.998133 
  30 1      16.365789       7.794826      11.998133 
  31 1      16.365789      12.205174      11.998133 
  32 1      3.6342109       9.264942      9.9295982 
  33 1      4.9073687       7.059768      9.9295982 
  34 1      4.9073687      11.470116      9.9295982 
  35 1      6.1805265      4.8545939      9.9295982 
  36 1      6.1805265       9.264942      9.9295982 
  37 1      7.4536844       7.059768      9.9295982 
  38 1      6.1805265       13.67529      9.9295982 
  39 1      7.4536844      11.470116      9.9295982 
  40 1      7.4536844      15.880464      9.9295982 
  41 1      8.7268422      4.8545939      9.9295982 
  42 1      8.7268422       9.264942      9.9295982 
  43 1           10.0       7.059768      9.9295982 
  44 1      8.7268422       13.67529      9.9295982 
  45 1           10.0      11.470116      9.9295982 
  46 1           10.0      15.880464      9.9295982 
  47 1      11.273158      4.8545939      9.9295982 
  48 1      11.273158       9.264942      9.9295982 
  49 1      12.546316       7.059768      9.9295982 
  50 1      11.273158       13.67529      9.9295982 
  51 1      12.546316      11.470116      9.9295982 
  52 1      12.546316      15.880464      9.9295982 
  53 1      13.819473      4.8545939      9.9295982 
  54 1      13.819473       9.264942      9.9295982 
  55 1      15.092631       7.059768      9.9295982 
  56 1      13.819473       13.67529      9.9295982 
  57 1      15.092631      11.470116      9.9295982 
  58 1      16.365789       9.264942      9.9295982 
  59 1      4.9073687       8.529884      7.8456261 
  60 1      6.1805265        6.32471      7.8456261 
  61 1      7.4536844       8.529884      7.8456261 
  62 1      6.1805265      10.735058      7.8456261 
  63 1      7.4536844      12.940232      7.8456261 
  64 1      8.7268422        6.32471      7.8456261 
  65 1           10.0       8.529884      7.8456261 
  66 1      8.7268422      10.735058      7.8456261 
  67 1           10.0      12.940232      7.8456261 
  68 1      8.7268422      15.145406      7.8456261 
  69 1      11.273158        6.32471      7.8456261 
  70 1      12.546316       8.529884      7.8456261 
  71 1      11.273158      10.735058      7.8456261 
  72 1      12.546316      12.940232      7.8456261 
  73 1      11.273158      15.145406      7.8456261 
  74 1      13.819473        6.32471      7.8456261 
  75 1      15.092631       8.529884      7.8456261 
  76 1      13.819473      10.735058      7.8456261 
  77 1      7.4536844           10.0      5.7665681 
  78 1      8.7268422       7.794826      5.7665681 
  79 1           10.0           10.0      5.7665681 
  80 1      8.7268422      12.205174      5.7665681 
  81 1      11.273158       7.794826      5.7665681 
  82 1      12.546316           10.0      5.7665681 
  83 1      11.273158      12.205174      5.7665681 
  84 1      7.4578953      11.474014      14.233432 
